 Entering Gaussian System, Link 0=g16
 Initial command:
 /sw/apps/gaussian-16.0/g16/l1.exe "/tmp/Gau-96172.inp" -scrdir="/tmp/"
 Entering Link 1 = /sw/apps/gaussian-16.0/g16/l1.exe PID=     96173.
  
 Copyright (c) 1988,1990,1992,1993,1995,1998,2003,2009,2016,
            Gaussian, Inc.  All Rights Reserved.
  
 This is part of the Gaussian(R) 16 program.  It is based on
 the Gaussian(R) 09 system (copyright 2009, Gaussian, Inc.),
 the Gaussian(R) 03 system (copyright 2003, Gaussian, Inc.),
 the Gaussian(R) 98 system (copyright 1998, Gaussian, Inc.),
 the Gaussian(R) 94 system (copyright 1995, Gaussian, Inc.),
 the Gaussian 92(TM) system (copyright 1992, Gaussian, Inc.),
 the Gaussian 90(TM) system (copyright 1990, Gaussian, Inc.),
 the Gaussian 88(TM) system (copyright 1988, Gaussian, Inc.),
 the Gaussian 86(TM) system (copyright 1986, Carnegie Mellon
 University), and the Gaussian 82(TM) system (copyright 1983,
 Carnegie Mellon University). Gaussian is a federally registered
 trademark of Gaussian, Inc.
  
 This software contains proprietary and confidential information,
 including trade secrets, belonging to Gaussian, Inc.
  
 This software is provided under written license and may be
 used, copied, transmitted, or stored only in accord with that
 written license.
  
 The following legend is applicable only to US Government
 contracts under FAR:
  
                    RESTRICTED RIGHTS LEGEND
  
 Use, reproduction and disclosure by the US Government is
 subject to restrictions as set forth in subparagraphs (a)
 and (c) of the Commercial Computer Software - Restricted
 Rights clause in FAR 52.227-19.
  
 Gaussian, Inc.
 340 Quinnipiac St., Bldg. 40, Wallingford CT 06492
  
  
 ---------------------------------------------------------------
 Warning -- This program may not be used in any manner that
 competes with the business of Gaussian, Inc. or will provide
 assistance to any competitor of Gaussian, Inc.  The licensee
 of this program is prohibited from giving any competitor of
 Gaussian, Inc. access to this program.  By using this program,
 the user acknowledges that Gaussian, Inc. is engaged in the
 business of creating and licensing software in the field of
 computational chemistry and represents and warrants to the
 licensee that it is not a competitor of Gaussian, Inc. and that
 it will not use this program in any manner prohibited above.
 ---------------------------------------------------------------
  

 Cite this work as:
 Gaussian 16, Revision A.03,
 M. J. Frisch, G. W. Trucks, H. B. Schlegel, G. E. Scuseria, 
 M. A. Robb, J. R. Cheeseman, G. Scalmani, V. Barone, 
 G. A. Petersson, H. Nakatsuji, X. Li, M. Caricato, A. V. Marenich, 
 J. Bloino, B. G. Janesko, R. Gomperts, B. Mennucci, H. P. Hratchian, 
 J. V. Ortiz, A. F. Izmaylov, J. L. Sonnenberg, D. Williams-Young, 
 F. Ding, F. Lipparini, F. Egidi, J. Goings, B. Peng, A. Petrone, 
 T. Henderson, D. Ranasinghe, V. G. Zakrzewski, J. Gao, N. Rega, 
 G. Zheng, W. Liang, M. Hada, M. Ehara, K. Toyota, R. Fukuda, 
 J. Hasegawa, M. Ishida, T. Nakajima, Y. Honda, O. Kitao, H. Nakai, 
 T. Vreven, K. Throssell, J. A. Montgomery, Jr., J. E. Peralta, 
 F. Ogliaro, M. J. Bearpark, J. J. Heyd, E. N. Brothers, K. N. Kudin, 
 V. N. Staroverov, T. A. Keith, R. Kobayashi, J. Normand, 
 K. Raghavachari, A. P. Rendell, J. C. Burant, S. S. Iyengar, 
 J. Tomasi, M. Cossi, J. M. Millam, M. Klene, C. Adamo, R. Cammi, 
 J. W. Ochterski, R. L. Martin, K. Morokuma, O. Farkas, 
 J. B. Foresman, and D. J. Fox, Gaussian, Inc., Wallingford CT, 2016.
 
 ******************************************
 Gaussian 16:  ES64L-G16RevA.03 25-Dec-2016
                 5-May-2022 
 ******************************************
 %nproc=24
 Will use up to   24 processors via shared memory.
 %mem=50gb
 --------------------
 #p ZINDO=(nstates=5)
 --------------------
 1/38=1,172=1/1;
 2/12=2,17=6,18=5,40=1/2;
 3/5=2,25=1,41=400000/1,2,3,8;
 4/5=3,35=1/1;
 5/5=2,35=1,38=5/2;
 8/6=1,108=5/1;
 9/41=5,42=1,49=10/14;
 6/7=2,8=2,9=2,10=2/1;
 99/5=1,9=1/99;
 Leave Link    1 at Thu May  5 13:40:50 2022, MaxMem=  6710886400 cpu:               0.5 elap:               0.0
 (Enter /sw/apps/gaussian-16.0/g16/l101.exe)
 -----------------------------
 step_851_chromophore_16 ZINDO
 -----------------------------
 Symbolic Z-matrix:
 Charge =  0 Multiplicity = 1
 Mg                    40.821    41.578    27.534 
 C                     40.026    43.766    30.188 
 C                     41.778    39.216    29.867 
 C                     42.182    39.759    25.037 
 C                     40.589    44.31     25.334 
 N                     41.099    41.608    29.77 
 C                     40.502    42.503    30.64 
 C                     40.72     42.03     32.127 
 C                     41.201    40.52     31.964 
 C                     41.461    40.448    30.438 
 C                     42.354    40.1      32.799 
 C                     39.395    42.255    32.935 
 C                     39.244    41.429    34.238 
 C                     38.636    42.092    35.426 
 O                     37.475    42.318    35.611 
 O                     39.624    42.437    36.287 
 N                     41.729    39.673    27.456 
 C                     41.864    38.814    28.481 
 C                     42.277    37.524    27.951 
 C                     42.464    37.647    26.532 
 C                     42.197    39.128    26.294 
 C                     42.356    36.29     28.849 
 C                     42.819    36.612    25.505 
 O                     43.086    36.852    24.344 
 C                     42.769    35.137    25.955 
 N                     41.28     42.048    25.506 
 C                     41.831    41.084    24.745 
 C                     41.798    41.421    23.257 
 C                     41.323    42.931    23.316 
 C                     40.988    43.127    24.785 
 C                     43.222    41.09     22.525 
 C                     40.034    43.194    22.447 
 C                     38.647    42.978    23.14 
 N                     40.303    43.628    27.677 
 C                     40.308    44.625    26.705 
 C                     39.84     45.834    27.309 
 C                     39.605    45.512    28.649 
 C                     39.994    44.177    28.825 
 C                     39.5      47.212    26.685 
 C                     39.222    46.081    29.91 
 O                     38.73     47.167    30.18 
 C                     39.493    44.967    31.074 
 C                     40.519    45.534    31.965 
 O                     41.655    45.784    31.704 
 O                     39.923    45.722    33.189 
 C                     40.595    46.648    34.044 
 C                     39.2      43.057    37.578 
 C                     38.71     41.948    38.458 
 C                     38.05     42.16     39.593 
 C                     37.788    43.476    40.256 
 C                     37.571    40.954    40.382 
 C                     38.495    40.521    41.515 
 C                     38.719    38.907    41.451 
 C                     38.754    38.3      42.85 
 C                     40.166    37.753    43.202 
 C                     37.721    37.24     43.072 
 C                     36.991    37.211    44.457 
 C                     36.493    35.767    44.811 
 C                     35.158    35.709    45.559 
 C                     35.246    36.58     46.844 
 C                     34.778    34.285    45.852 
 C                     33.497    33.871    45.017 
 C                     32.126    33.972    45.693 
 C                     31.31     35.244    45.338 
 C                     30.344    34.922    44.191 
 C                     30.356    35.736    46.499 
 H                     41.887    38.421    30.608 
 H                     42.496    39.14     24.194 
 H                     40.398    45.184    24.708 
 H                     41.455    42.661    32.627 
 H                     40.349    39.889    32.215 
 H                     43.07     39.536    32.202 
 H                     42.04     39.459    33.623 
 H                     42.951    40.872    33.286 
 H                     38.647    41.882    32.235 
 H                     39.239    43.305    33.182 
 H                     40.243    41.072    34.491 
 H                     38.698    40.486    34.198 
 H                     42.224    36.352    29.929 
 H                     43.269    35.742    28.619 
 H                     41.527    35.652    28.542 
 H                     43.594    35.076    26.665 
 H                     43.092    34.456    25.168 
 H                     41.804    34.845    26.37 
 H                     41.034    40.836    22.744 
 H                     42.141    43.561    22.965 
 H                     43.484    42.007    21.997 
 H                     43.074    40.266    21.827 
 H                     44.073    40.852    23.162 
 H                     40.18     42.501    21.618 
 H                     40.141    44.234    22.138 
 H                     38.863    42.351    24.006 
 H                     37.984    42.379    22.515 
 H                     38.189    43.947    23.338 
 H                     40.092    48.058    27.035 
 H                     38.461    47.338    26.989 
 H                     39.425    47.173    25.598 
 H                     38.499    44.91     31.518 
 H                     40.93     46.118    34.936 
 H                     39.815    47.369    34.288 
 H                     41.497    47.135    33.673 
 H                     38.328    43.691    37.416 
 H                     40.06     43.612    37.955 
 H                     38.79     41.011    37.907 
 H                     36.726    43.467    40.501 
 H                     37.938    44.305    39.564 
 H                     38.289    43.679    41.203 
 H                     37.407    40.203    39.61 
 H                     36.643    41.313    40.826 
 H                     37.971    40.671    42.459 
 H                     39.442    41.058    41.471 
 H                     39.687    38.795    40.962 
 H                     38.029    38.329    40.837 
 H                     38.548    39.088    43.574 
 H                     40.1      37.091    44.065 
 H                     40.652    38.724    43.286 
 H                     40.53     37.24     42.311 
 H                     38.223    36.288    42.896 
 H                     36.907    37.509    42.399 
 H                     36.218    37.98     44.454 
 H                     37.692    37.565    45.213 
 H                     37.165    35.245    45.491 
 H                     36.299    35.208    43.895 
 H                     34.436    36.192    44.901 
 H                     34.93     37.607    46.663 
 H                     36.279    36.802    47.112 
 H                     34.763    36.155    47.724 
 H                     34.507    34.151    46.9 
 H                     35.564    33.567    45.618 
 H                     33.59     32.804    44.814 
 H                     33.506    34.349    44.038 
 H                     32.325    34.003    46.764 
 H                     31.502    33.078    45.659 
 H                     32.041    36.037    45.179 
 H                     30.364    33.888    43.846 
 H                     30.637    35.618    43.404 
 H                     29.306    35.182    44.394 
 H                     29.316    35.945    46.249 
 H                     30.726    36.721    46.784 
 H                     30.484    35.054    47.34 
 
 ITRead=  0  0  0  0  0  0  0  0  0  0  0  0  0  0  0  0  0  0  0  0
 ITRead=  0  0  0  0  0  0  0  0  0  0  0  0  0  0  0  0  0  0  0  0
 ITRead=  0  0  0  0  0  0  0  0  0  0  0  0  0  0  0  0  0  0  0  0
 ITRead=  0  0  0  0  0  0  0  0  0  0  0  0  0  0  0  0  0  0  0  0
 ITRead=  0  0  0  0  0  0  0  0  0  0  0  0  0  0  0  0  0  0  0  0
 ITRead=  0  0  0  0  0  0  0  0  0  0  0  0  0  0  0  0  0  0  0  0
 ITRead=  0  0  0  0  0  0  0  0  0  0  0  0  0  0  0  0  0  0  0  0
 MicOpt= -1 -1 -1 -1 -1 -1 -1 -1 -1 -1 -1 -1 -1 -1 -1 -1 -1 -1 -1 -1
 MicOpt= -1 -1 -1 -1 -1 -1 -1 -1 -1 -1 -1 -1 -1 -1 -1 -1 -1 -1 -1 -1
 MicOpt= -1 -1 -1 -1 -1 -1 -1 -1 -1 -1 -1 -1 -1 -1 -1 -1 -1 -1 -1 -1
 MicOpt= -1 -1 -1 -1 -1 -1 -1 -1 -1 -1 -1 -1 -1 -1 -1 -1 -1 -1 -1 -1
 MicOpt= -1 -1 -1 -1 -1 -1 -1 -1 -1 -1 -1 -1 -1 -1 -1 -1 -1 -1 -1 -1
 MicOpt= -1 -1 -1 -1 -1 -1 -1 -1 -1 -1 -1 -1 -1 -1 -1 -1 -1 -1 -1 -1
 MicOpt= -1 -1 -1 -1 -1 -1 -1 -1 -1 -1 -1 -1 -1 -1 -1 -1 -1 -1 -1 -1
 NAtoms=    140 NQM=      140 NQMF=       0 NMMI=      0 NMMIF=      0
                NMic=       0 NMicF=      0.
                    Isotopes and Nuclear Properties:
 (Nuclear quadrupole moments (NQMom) in fm**2, nuclear magnetic moments (NMagM)
  in nuclear magnetons)

  Atom         1           2           3           4           5           6           7           8           9          10
 IAtWgt=          24          12          12          12          12          14          12          12          12          12
 AtmWgt=  23.9850450  12.0000000  12.0000000  12.0000000  12.0000000  14.0030740  12.0000000  12.0000000  12.0000000  12.0000000
 NucSpn=           0           0           0           0           0           2           0           0           0           0
 AtZEff=  -0.0000000  -0.0000000  -0.0000000  -0.0000000  -0.0000000  -0.0000000  -0.0000000  -0.0000000  -0.0000000  -0.0000000
 NQMom=    0.0000000   0.0000000   0.0000000   0.0000000   0.0000000   2.0440000   0.0000000   0.0000000   0.0000000   0.0000000
 NMagM=    0.0000000   0.0000000   0.0000000   0.0000000   0.0000000   0.4037610   0.0000000   0.0000000   0.0000000   0.0000000
 AtZNuc=  12.0000000   6.0000000   6.0000000   6.0000000   6.0000000   7.0000000   6.0000000   6.0000000   6.0000000   6.0000000

  Atom        11          12          13          14          15          16          17          18          19          20
 IAtWgt=          12          12          12          12          16          16          14          12          12          12
 AtmWgt=  12.0000000  12.0000000  12.0000000  12.0000000  15.9949146  15.9949146  14.0030740  12.0000000  12.0000000  12.0000000
 NucSpn=           0           0           0           0           0           0           2           0           0           0
 AtZEff=  -0.0000000  -0.0000000  -0.0000000  -0.0000000  -0.0000000  -0.0000000  -0.0000000  -0.0000000  -0.0000000  -0.0000000
 NQMom=    0.0000000   0.0000000   0.0000000   0.0000000   0.0000000   0.0000000   2.0440000   0.0000000   0.0000000   0.0000000
 NMagM=    0.0000000   0.0000000   0.0000000   0.0000000   0.0000000   0.0000000   0.4037610   0.0000000   0.0000000   0.0000000
 AtZNuc=   6.0000000   6.0000000   6.0000000   6.0000000   8.0000000   8.0000000   7.0000000   6.0000000   6.0000000   6.0000000

  Atom        21          22          23          24          25          26          27          28          29          30
 IAtWgt=          12          12          12          16          12          14          12          12          12          12
 AtmWgt=  12.0000000  12.0000000  12.0000000  15.9949146  12.0000000  14.0030740  12.0000000  12.0000000  12.0000000  12.0000000
 NucSpn=           0           0           0           0           0           2           0           0           0           0
 AtZEff=  -0.0000000  -0.0000000  -0.0000000  -0.0000000  -0.0000000  -0.0000000  -0.0000000  -0.0000000  -0.0000000  -0.0000000
 NQMom=    0.0000000   0.0000000   0.0000000   0.0000000   0.0000000   2.0440000   0.0000000   0.0000000   0.0000000   0.0000000
 NMagM=    0.0000000   0.0000000   0.0000000   0.0000000   0.0000000   0.4037610   0.0000000   0.0000000   0.0000000   0.0000000
 AtZNuc=   6.0000000   6.0000000   6.0000000   8.0000000   6.0000000   7.0000000   6.0000000   6.0000000   6.0000000   6.0000000

  Atom        31          32          33          34          35          36          37          38          39          40
 IAtWgt=          12          12          12          14          12          12          12          12          12          12
 AtmWgt=  12.0000000  12.0000000  12.0000000  14.0030740  12.0000000  12.0000000  12.0000000  12.0000000  12.0000000  12.0000000
 NucSpn=           0           0           0           2           0           0           0           0           0           0
 AtZEff=  -0.0000000  -0.0000000  -0.0000000  -0.0000000  -0.0000000  -0.0000000  -0.0000000  -0.0000000  -0.0000000  -0.0000000
 NQMom=    0.0000000   0.0000000   0.0000000   2.0440000   0.0000000   0.0000000   0.0000000   0.0000000   0.0000000   0.0000000
 NMagM=    0.0000000   0.0000000   0.0000000   0.4037610   0.0000000   0.0000000   0.0000000   0.0000000   0.0000000   0.0000000
 AtZNuc=   6.0000000   6.0000000   6.0000000   7.0000000   6.0000000   6.0000000   6.0000000   6.0000000   6.0000000   6.0000000

  Atom        41          42          43          44          45          46          47          48          49          50
 IAtWgt=          16          12          12          16          16          12          12          12          12          12
 AtmWgt=  15.9949146  12.0000000  12.0000000  15.9949146  15.9949146  12.0000000  12.0000000  12.0000000  12.0000000  12.0000000
 NucSpn=           0           0           0           0           0           0           0           0           0           0
 AtZEff=  -0.0000000  -0.0000000  -0.0000000  -0.0000000  -0.0000000  -0.0000000  -0.0000000  -0.0000000  -0.0000000  -0.0000000
 NQMom=    0.0000000   0.0000000   0.0000000   0.0000000   0.0000000   0.0000000   0.0000000   0.0000000   0.0000000   0.0000000
 NMagM=    0.0000000   0.0000000   0.0000000   0.0000000   0.0000000   0.0000000   0.0000000   0.0000000   0.0000000   0.0000000
 AtZNuc=   8.0000000   6.0000000   6.0000000   8.0000000   8.0000000   6.0000000   6.0000000   6.0000000   6.0000000   6.0000000

  Atom        51          52          53          54          55          56          57          58          59          60
 IAtWgt=          12          12          12          12          12          12          12          12          12          12
 AtmWgt=  12.0000000  12.0000000  12.0000000  12.0000000  12.0000000  12.0000000  12.0000000  12.0000000  12.0000000  12.0000000
 NucSpn=           0           0           0           0           0           0           0           0           0           0
 AtZEff=  -0.0000000  -0.0000000  -0.0000000  -0.0000000  -0.0000000  -0.0000000  -0.0000000  -0.0000000  -0.0000000  -0.0000000
 NQMom=    0.0000000   0.0000000   0.0000000   0.0000000   0.0000000   0.0000000   0.0000000   0.0000000   0.0000000   0.0000000
 NMagM=    0.0000000   0.0000000   0.0000000   0.0000000   0.0000000   0.0000000   0.0000000   0.0000000   0.0000000   0.0000000
 AtZNuc=   6.0000000   6.0000000   6.0000000   6.0000000   6.0000000   6.0000000   6.0000000   6.0000000   6.0000000   6.0000000

  Atom        61          62          63          64          65          66          67          68          69          70
 IAtWgt=          12          12          12          12          12          12           1           1           1           1
 AtmWgt=  12.0000000  12.0000000  12.0000000  12.0000000  12.0000000  12.0000000   1.0078250   1.0078250   1.0078250   1.0078250
 NucSpn=           0           0           0           0           0           0           1           1           1           1
 AtZEff=  -0.0000000  -0.0000000  -0.0000000  -0.0000000  -0.0000000  -0.0000000  -0.0000000  -0.0000000  -0.0000000  -0.0000000
 NQMom=    0.0000000   0.0000000   0.0000000   0.0000000   0.0000000   0.0000000   0.0000000   0.0000000   0.0000000   0.0000000
 NMagM=    0.0000000   0.0000000   0.0000000   0.0000000   0.0000000   0.0000000   2.7928460   2.7928460   2.7928460   2.7928460
 AtZNuc=   6.0000000   6.0000000   6.0000000   6.0000000   6.0000000   6.0000000   1.0000000   1.0000000   1.0000000   1.0000000

  Atom        71          72          73          74          75          76          77          78          79          80
 IAtWgt=           1           1           1           1           1           1           1           1           1           1
 AtmWgt=   1.0078250   1.0078250   1.0078250   1.0078250   1.0078250   1.0078250   1.0078250   1.0078250   1.0078250   1.0078250
 NucSpn=           1           1           1           1           1           1           1           1           1           1
 AtZEff=  -0.0000000  -0.0000000  -0.0000000  -0.0000000  -0.0000000  -0.0000000  -0.0000000  -0.0000000  -0.0000000  -0.0000000
 NQMom=    0.0000000   0.0000000   0.0000000   0.0000000   0.0000000   0.0000000   0.0000000   0.0000000   0.0000000   0.0000000
 NMagM=    2.7928460   2.7928460   2.7928460   2.7928460   2.7928460   2.7928460   2.7928460   2.7928460   2.7928460   2.7928460
 AtZNuc=   1.0000000   1.0000000   1.0000000   1.0000000   1.0000000   1.0000000   1.0000000   1.0000000   1.0000000   1.0000000

  Atom        81          82          83          84          85          86          87          88          89          90
 IAtWgt=           1           1           1           1           1           1           1           1           1           1
 AtmWgt=   1.0078250   1.0078250   1.0078250   1.0078250   1.0078250   1.0078250   1.0078250   1.0078250   1.0078250   1.0078250
 NucSpn=           1           1           1           1           1           1           1           1           1           1
 AtZEff=  -0.0000000  -0.0000000  -0.0000000  -0.0000000  -0.0000000  -0.0000000  -0.0000000  -0.0000000  -0.0000000  -0.0000000
 NQMom=    0.0000000   0.0000000   0.0000000   0.0000000   0.0000000   0.0000000   0.0000000   0.0000000   0.0000000   0.0000000
 NMagM=    2.7928460   2.7928460   2.7928460   2.7928460   2.7928460   2.7928460   2.7928460   2.7928460   2.7928460   2.7928460
 AtZNuc=   1.0000000   1.0000000   1.0000000   1.0000000   1.0000000   1.0000000   1.0000000   1.0000000   1.0000000   1.0000000

  Atom        91          92          93          94          95          96          97          98          99         100
 IAtWgt=           1           1           1           1           1           1           1           1           1           1
 AtmWgt=   1.0078250   1.0078250   1.0078250   1.0078250   1.0078250   1.0078250   1.0078250   1.0078250   1.0078250   1.0078250
 NucSpn=           1           1           1           1           1           1           1           1           1           1
 AtZEff=  -0.0000000  -0.0000000  -0.0000000  -0.0000000  -0.0000000  -0.0000000  -0.0000000  -0.0000000  -0.0000000  -0.0000000
 NQMom=    0.0000000   0.0000000   0.0000000   0.0000000   0.0000000   0.0000000   0.0000000   0.0000000   0.0000000   0.0000000
 NMagM=    2.7928460   2.7928460   2.7928460   2.7928460   2.7928460   2.7928460   2.7928460   2.7928460   2.7928460   2.7928460
 AtZNuc=   1.0000000   1.0000000   1.0000000   1.0000000   1.0000000   1.0000000   1.0000000   1.0000000   1.0000000   1.0000000

  Atom       101         102         103         104         105         106         107         108         109         110
 IAtWgt=           1           1           1           1           1           1           1           1           1           1
 AtmWgt=   1.0078250   1.0078250   1.0078250   1.0078250   1.0078250   1.0078250   1.0078250   1.0078250   1.0078250   1.0078250
 NucSpn=           1           1           1           1           1           1           1           1           1           1
 AtZEff=  -0.0000000  -0.0000000  -0.0000000  -0.0000000  -0.0000000  -0.0000000  -0.0000000  -0.0000000  -0.0000000  -0.0000000
 NQMom=    0.0000000   0.0000000   0.0000000   0.0000000   0.0000000   0.0000000   0.0000000   0.0000000   0.0000000   0.0000000
 NMagM=    2.7928460   2.7928460   2.7928460   2.7928460   2.7928460   2.7928460   2.7928460   2.7928460   2.7928460   2.7928460
 AtZNuc=   1.0000000   1.0000000   1.0000000   1.0000000   1.0000000   1.0000000   1.0000000   1.0000000   1.0000000   1.0000000

  Atom       111         112         113         114         115         116         117         118         119         120
 IAtWgt=           1           1           1           1           1           1           1           1           1           1
 AtmWgt=   1.0078250   1.0078250   1.0078250   1.0078250   1.0078250   1.0078250   1.0078250   1.0078250   1.0078250   1.0078250
 NucSpn=           1           1           1           1           1           1           1           1           1           1
 AtZEff=  -0.0000000  -0.0000000  -0.0000000  -0.0000000  -0.0000000  -0.0000000  -0.0000000  -0.0000000  -0.0000000  -0.0000000
 NQMom=    0.0000000   0.0000000   0.0000000   0.0000000   0.0000000   0.0000000   0.0000000   0.0000000   0.0000000   0.0000000
 NMagM=    2.7928460   2.7928460   2.7928460   2.7928460   2.7928460   2.7928460   2.7928460   2.7928460   2.7928460   2.7928460
 AtZNuc=   1.0000000   1.0000000   1.0000000   1.0000000   1.0000000   1.0000000   1.0000000   1.0000000   1.0000000   1.0000000

  Atom       121         122         123         124         125         126         127         128         129         130
 IAtWgt=           1           1           1           1           1           1           1           1           1           1
 AtmWgt=   1.0078250   1.0078250   1.0078250   1.0078250   1.0078250   1.0078250   1.0078250   1.0078250   1.0078250   1.0078250
 NucSpn=           1           1           1           1           1           1           1           1           1           1
 AtZEff=  -0.0000000  -0.0000000  -0.0000000  -0.0000000  -0.0000000  -0.0000000  -0.0000000  -0.0000000  -0.0000000  -0.0000000
 NQMom=    0.0000000   0.0000000   0.0000000   0.0000000   0.0000000   0.0000000   0.0000000   0.0000000   0.0000000   0.0000000
 NMagM=    2.7928460   2.7928460   2.7928460   2.7928460   2.7928460   2.7928460   2.7928460   2.7928460   2.7928460   2.7928460
 AtZNuc=   1.0000000   1.0000000   1.0000000   1.0000000   1.0000000   1.0000000   1.0000000   1.0000000   1.0000000   1.0000000

  Atom       131         132         133         134         135         136         137         138         139         140
 IAtWgt=           1           1           1           1           1           1           1           1           1           1
 AtmWgt=   1.0078250   1.0078250   1.0078250   1.0078250   1.0078250   1.0078250   1.0078250   1.0078250   1.0078250   1.0078250
 NucSpn=           1           1           1           1           1           1           1           1           1           1
 AtZEff=  -0.0000000  -0.0000000  -0.0000000  -0.0000000  -0.0000000  -0.0000000  -0.0000000  -0.0000000  -0.0000000  -0.0000000
 NQMom=    0.0000000   0.0000000   0.0000000   0.0000000   0.0000000   0.0000000   0.0000000   0.0000000   0.0000000   0.0000000
 NMagM=    2.7928460   2.7928460   2.7928460   2.7928460   2.7928460   2.7928460   2.7928460   2.7928460   2.7928460   2.7928460
 AtZNuc=   1.0000000   1.0000000   1.0000000   1.0000000   1.0000000   1.0000000   1.0000000   1.0000000   1.0000000   1.0000000
 Leave Link  101 at Thu May  5 13:40:50 2022, MaxMem=  6710886400 cpu:               3.4 elap:               0.2
 (Enter /sw/apps/gaussian-16.0/g16/l202.exe)
 Stoichiometry    C55H74MgN4O6
 Framework group  C1[X(C55H74MgN4O6)]
 Deg. of freedom   414
 Full point group                 C1      NOp   1
 Largest Abelian subgroup         C1      NOp   1
 Largest concise Abelian subgroup C1      NOp   1
                         Standard orientation:                         
 ---------------------------------------------------------------------
 Center     Atomic      Atomic             Coordinates (Angstroms)
 Number     Number       Type             X           Y           Z
 ---------------------------------------------------------------------
      1         12           0        6.074923    0.688803    0.403652
      2          6           0        3.964270   -2.137505    0.261499
      3          6           0        3.625752    2.506444   -1.219779
      4          6           0        8.311990    3.176606   -0.046310
      5          6           0        8.721876   -1.446979    1.292315
      6          7           0        4.121792    0.152344   -0.583956
      7          6           0        3.371797   -0.978844   -0.315153
      8          6           0        1.955974   -0.856157   -0.995460
      9          6           0        1.864283    0.688679   -1.373753
     10          6           0        3.322935    1.148670   -1.124354
     11          6           0        1.347938    1.007777   -2.728227
     12          6           0        0.864882   -1.396671   -0.007292
     13          6           0       -0.587624   -0.925159   -0.273350
     14          6           0       -1.691963   -1.909358   -0.093452
     15          8           0       -2.161829   -2.285767    0.941326
     16          8           0       -2.085744   -2.351662   -1.312384
     17          7           0        5.935490    2.636759   -0.399841
     18          6           0        4.817339    3.234678   -0.845891
     19          6           0        5.097332    4.648090   -1.044488
     20          6           0        6.485785    4.886960   -0.763776
     21          6           0        7.003203    3.487023   -0.457593
     22          6           0        3.981382    5.633147   -1.390491
     23          6           0        7.268583    6.167207   -0.750589
     24          8           0        8.475777    6.239197   -0.630965
     25          6           0        6.460679    7.479564   -0.825653
     26          7           0        8.194430    0.764779    0.618791
     27          6           0        8.812631    1.932044    0.359296
     28          6           0       10.251459    1.959115    0.867076
     29          6           0       10.440205    0.439740    1.273376
     30          6           0        9.042539   -0.133760    1.111419
     31          6           0       11.276233    2.593560   -0.237676
     32          6           0       10.905136    0.267102    2.770001
     33          6           0        9.786378    0.174024    3.861052
     34          7           0        6.312800   -1.376527    0.814866
     35          6           0        7.461308   -2.106704    1.109129
     36          6           0        7.075681   -3.464958    1.337072
     37          6           0        5.693369   -3.497404    1.130505
     38          6           0        5.308076   -2.211715    0.726679
     39          6           0        7.897301   -4.680242    1.838954
     40          6           0        4.567496   -4.386193    1.075407
     41          8           0        4.448456   -5.548105    1.436173
     42          6           0        3.298353   -3.561845    0.459729
     43          6           0        2.946128   -4.222053   -0.808383
     44          8           0        3.600637   -4.289746   -1.802442
     45          8           0        1.690001   -4.754827   -0.643968
     46          6           0        1.353937   -5.787938   -1.571237
     47          6           0       -3.238593   -3.300912   -1.339221
     48          6           0       -4.481677   -2.488098   -1.143117
     49          6           0       -5.669924   -3.029047   -0.889717
     50          6           0       -6.018286   -4.484576   -0.877447
     51          6           0       -6.851333   -2.099688   -0.673010
     52          6           0       -7.714591   -1.861753   -1.907161
     53          6           0       -8.003165   -0.265329   -2.072753
     54          6           0       -9.429563   -0.010094   -2.549324
     55          6           0       -9.456495    0.572595   -3.990367
     56          6           0      -10.225508    0.859500   -1.627234
     57          6           0      -11.726409    0.484710   -1.384761
     58          6           0      -12.576901    1.746149   -1.005430
     59          6           0      -13.689171    1.492386    0.016114
     60          6           0      -14.613531    0.352305   -0.497095
     61          6           0      -14.442195    2.760664    0.303259
     62          6           0      -14.180571    3.234673    1.792034
     63          6           0      -15.197040    2.841002    2.868431
     64          6           0      -14.796119    1.617110    3.735157
     65          6           0      -14.127806    2.107749    5.025537
     66          6           0      -16.026795    0.770628    4.253815
     67          1           0        2.776044    3.107907   -1.550272
     68          1           0        9.021008    4.006965   -0.060521
     69          1           0        9.461353   -2.160300    1.661882
     70          1           0        1.888236   -1.513217   -1.862679
     71          1           0        1.208409    1.154665   -0.639074
     72          1           0        1.970207    1.765594   -3.203260
     73          1           0        0.331249    1.399145   -2.687894
     74          1           0        1.285825    0.204086   -3.462926
     75          1           0        1.178239   -0.942288    0.932909
     76          1           0        0.861455   -2.485357    0.043647
     77          1           0       -0.602560   -0.542835   -1.294655
     78          1           0       -0.963040   -0.058177    0.271049
     79          1           0        2.967969    5.302028   -1.616374
     80          1           0        4.332719    6.307056   -2.170991
     81          1           0        3.841593    6.241595   -0.496744
     82          1           0        6.050000    7.449593   -1.835054
     83          1           0        7.105223    8.357306   -0.865532
     84          1           0        5.707216    7.567768   -0.042564
     85          1           0       10.334001    2.572004    1.765210
     86          1           0       11.176850   -0.004699    0.603262
     87          1           0       12.077103    1.859683   -0.329055
     88          1           0       11.656847    3.541973    0.141440
     89          1           0       10.894750    2.754581   -1.245226
     90          1           0       11.530325    1.149124    2.911352
     91          1           0       11.489364   -0.653168    2.752373
     92          1           0        8.898659    0.593795    3.386195
     93          1           0        9.999047    0.837126    4.700137
     94          1           0        9.713570   -0.854310    4.214826
     95          1           0        7.978141   -5.523146    1.152180
     96          1           0        7.330413   -4.976544    2.721369
     97          1           0        8.859078   -4.389965    2.262556
     98          1           0        2.570008   -3.710435    1.257135
     99          1           0        0.504222   -5.456421   -2.168622
    100          1           0        1.075522   -6.619275   -0.923827
    101          1           0        2.097960   -6.081216   -2.312069
    102          1           0       -3.196243   -3.960132   -0.471915
    103          1           0       -3.174713   -3.842882   -2.283648
    104          1           0       -4.194310   -1.443322   -1.025499
    105          1           0       -6.573104   -4.638611    0.047972
    106          1           0       -5.124612   -5.105204   -0.808369
    107          1           0       -6.677939   -4.858025   -1.661292
    108          1           0       -6.389093   -1.205666   -0.255949
    109          1           0       -7.451957   -2.643669    0.055369
    110          1           0       -8.701962   -2.283796   -1.719573
    111          1           0       -7.243090   -2.277122   -2.797256
    112          1           0       -7.285264    0.054730   -2.828312
    113          1           0       -7.803493    0.372208   -1.212023
    114          1           0       -9.952673   -0.964661   -2.601417
    115          1           0      -10.437654    0.999241   -4.196933
    116          1           0       -9.132677   -0.337841   -4.492702
    117          1           0       -8.660739    1.316938   -4.038011
    118          1           0      -10.154853    1.870465   -2.030025
    119          1           0       -9.791638    0.680770   -0.643517
    120          1           0      -11.764179   -0.333240   -0.664740
    121          1           0      -12.110455    0.030680   -2.298336
    122          1           0      -13.126337    2.153683   -1.853076
    123          1           0      -11.942585    2.486191   -0.516397
    124          1           0      -13.185388    1.112362    0.904552
    125          1           0      -14.280560   -0.627496   -0.155825
    126          1           0      -14.482316    0.175051   -1.564597
    127          1           0      -15.677989    0.505049   -0.318453
    128          1           0      -15.519841    2.612907    0.222335
    129          1           0      -14.170305    3.587300   -0.353113
    130          1           0      -14.241277    4.323082    1.786711
    131          1           0      -13.158315    3.007927    2.093004
    132          1           0      -16.107912    2.574440    2.332837
    133          1           0      -15.589414    3.651566    3.483897
    134          1           0      -14.220064    0.960762    3.082578
    135          1           0      -14.072577    3.191080    5.134736
    136          1           0      -13.137287    1.652342    4.992216
    137          1           0      -14.567362    1.706252    5.937592
    138          1           0      -16.065459    0.526537    5.315279
    139          1           0      -15.919208   -0.212777    3.795896
    140          1           0      -16.933017    1.240879    3.871172
 ---------------------------------------------------------------------
 Rotational constants (GHZ):           0.0449272           0.0080365           0.0073414
 Leave Link  202 at Thu May  5 13:40:50 2022, MaxMem=  6710886400 cpu:               0.2 elap:               0.0
 (Enter /sw/apps/gaussian-16.0/g16/l301.exe)
 Standard basis: VSTO-6G (5D, 7F)
 Ernie: Thresh=  0.10000D-02 Tol=  0.10000D-05 Strict=F.
 There are   338 symmetry adapted cartesian basis functions of A   symmetry.
 There are   338 symmetry adapted basis functions of A   symmetry.
   338 basis functions,  2028 primitive gaussians,   338 cartesian basis functions
   176 alpha electrons      176 beta electrons
       nuclear repulsion energy      4669.8816680831 Hartrees.
 IExCor=    0 DFT=F Ex=HF Corr=None ExCW=0 ScaHFX=  1.000000
 ScaDFX=  1.000000  1.000000  1.000000  1.000000 ScalE2=  1.000000  1.000000
 IRadAn=      5 IRanWt=     -1 IRanGd=            0 ICorTp=0 IEmpDi=  4
 Integral buffers will be    131072 words long.
 Regular integral format.
 Two-electron integral symmetry is turned off.
 Leave Link  301 at Thu May  5 13:40:50 2022, MaxMem=  6710886400 cpu:               1.5 elap:               0.1
 (Enter /sw/apps/gaussian-16.0/g16/l302.exe)
 Do NDO integrals.
 NPDir=0 NMtPBC=     1 NCelOv=     1 NCel=       1 NClECP=     1 NCelD=      1
         NCelK=      1 NCelE2=     1 NClLst=     1 CellRange=     0.0.
 One-electron integrals computed using PRISM.
 Generate ZINDO/S integrals.
 NDO Nuclear repulsion=  4192.639125330662 Hartrees.
 NBasis=   338 RedAO= F EigKep=  0.00D+00  NBF=   338
 NBsUse=   338 1.00D-04 EigRej=  0.00D+00 NBFU=   338
 Leave Link  302 at Thu May  5 13:40:51 2022, MaxMem=  6710886400 cpu:               7.5 elap:               0.3
 (Enter /sw/apps/gaussian-16.0/g16/l303.exe)
 DipDrv:  MaxL=1.
 DipDrv:  will hold  3 matrices at once.
 Leave Link  303 at Thu May  5 13:40:51 2022, MaxMem=  6710886400 cpu:               0.5 elap:               0.0
 (Enter /sw/apps/gaussian-16.0/g16/l308.exe)
 Leave Link  308 at Thu May  5 13:40:51 2022, MaxMem=  6710886400 cpu:               4.3 elap:               0.2
 (Enter /sw/apps/gaussian-16.0/g16/l401.exe)
 Simple Huckel Guess.
 JPrj=0 DoOrth=F DoCkMO=F.
 Leave Link  401 at Thu May  5 13:40:51 2022, MaxMem=  6710886400 cpu:               2.9 elap:               0.1
 (Enter /sw/apps/gaussian-16.0/g16/l502.exe)
 Two-electron integral symmetry not used.
 Closed shell SCF:
 Using DIIS extrapolation, IDIIS=  1040.
 Overlap will be assumed to be unity.
 NGot=  6710886400 LenX=  6710643598 LenY=  6710528913
 Requested convergence on RMS density matrix=1.00D-08 within 128 cycles.
 Requested convergence on MAX density matrix=1.00D-06.
 Requested convergence on             energy=1.00D-06.
 No special actions if energy rises.
 Fock matrices will be formed incrementally for  20 cycles.

 Cycle   1  Pass 1  IDiag  1:
 E= -472.438888066532    
 DIIS: error= 5.96D-02 at cycle   1 NSaved=   1.
 NSaved= 1 IEnMin= 1 EnMin= -472.438888066532     IErMin= 1 ErrMin= 5.96D-02
 ErrMax= 5.96D-02  0.00D+00 EMaxC= 1.00D-01 BMatC= 8.32D-01 BMatP= 8.32D-01
 IDIUse=3 WtCom= 4.04D-01 WtEn= 5.96D-01
 Coeff-Com:  0.100D+01
 Coeff-En:   0.100D+01
 Coeff:      0.100D+01
 GapD=    2.000 DampG=2.000 DampE=0.500 DampFc=1.0000 IDamp=-1.
 RMSDP=3.97D-03 MaxDP=1.69D-01              OVMax= 0.00D+00

 Cycle   2  Pass 1  IDiag  1:
 RMSU=  3.96D-03    CP:  9.95D-01
 E= -474.271188117986     Delta-E=       -1.832300051454 Rises=F Damp=F
 DIIS: error= 2.11D-02 at cycle   2 NSaved=   2.
 NSaved= 2 IEnMin= 2 EnMin= -474.271188117986     IErMin= 2 ErrMin= 2.11D-02
 ErrMax= 2.11D-02  0.00D+00 EMaxC= 1.00D-01 BMatC= 4.95D-02 BMatP= 8.32D-01
 IDIUse=3 WtCom= 7.89D-01 WtEn= 2.11D-01
 Coeff-Com: -0.866D-01 0.109D+01
 Coeff-En:   0.000D+00 0.100D+01
 Coeff:     -0.683D-01 0.107D+01
 RMSDP=1.08D-03 MaxDP=5.36D-02 DE=-1.83D+00 OVMax= 0.00D+00

 Cycle   3  Pass 1  IDiag  1:
 RMSU=  9.84D-04    CP:  9.93D-01  1.11D+00
 E= -474.371330106354     Delta-E=       -0.100141988369 Rises=F Damp=F
 DIIS: error= 9.24D-03 at cycle   3 NSaved=   3.
 NSaved= 3 IEnMin= 3 EnMin= -474.371330106354     IErMin= 3 ErrMin= 9.24D-03
 ErrMax= 9.24D-03  0.00D+00 EMaxC= 1.00D-01 BMatC= 6.32D-03 BMatP= 4.95D-02
 IDIUse=3 WtCom= 9.08D-01 WtEn= 9.24D-02
 Coeff-Com: -0.657D-01 0.234D+00 0.832D+00
 Coeff-En:   0.000D+00 0.000D+00 0.100D+01
 Coeff:     -0.596D-01 0.212D+00 0.847D+00
 RMSDP=3.57D-04 MaxDP=1.65D-02 DE=-1.00D-01 OVMax= 0.00D+00

 Cycle   4  Pass 1  IDiag  1:
 RMSU=  2.38D-04    CP:  9.93D-01  1.18D+00  9.28D-01
 E= -474.382794678243     Delta-E=       -0.011464571889 Rises=F Damp=F
 DIIS: error= 1.42D-03 at cycle   4 NSaved=   4.
 NSaved= 4 IEnMin= 4 EnMin= -474.382794678243     IErMin= 4 ErrMin= 1.42D-03
 ErrMax= 1.42D-03  0.00D+00 EMaxC= 1.00D-01 BMatC= 3.11D-04 BMatP= 6.32D-03
 IDIUse=3 WtCom= 9.86D-01 WtEn= 1.42D-02
 Coeff-Com: -0.534D-03-0.339D-01 0.500D-01 0.984D+00
 Coeff-En:   0.000D+00 0.000D+00 0.000D+00 0.100D+01
 Coeff:     -0.527D-03-0.334D-01 0.493D-01 0.985D+00
 RMSDP=1.27D-04 MaxDP=5.72D-03 DE=-1.15D-02 OVMax= 0.00D+00

 Cycle   5  Pass 1  IDiag  1:
 RMSU=  8.44D-05    CP:  9.93D-01  1.18D+00  1.02D+00  1.04D+00
 E= -474.383773451888     Delta-E=       -0.000978773645 Rises=F Damp=F
 DIIS: error= 6.08D-04 at cycle   5 NSaved=   5.
 NSaved= 5 IEnMin= 5 EnMin= -474.383773451888     IErMin= 5 ErrMin= 6.08D-04
 ErrMax= 6.08D-04  0.00D+00 EMaxC= 1.00D-01 BMatC= 5.66D-05 BMatP= 3.11D-04
 IDIUse=3 WtCom= 9.94D-01 WtEn= 6.08D-03
 Coeff-Com:  0.604D-02-0.259D-01-0.920D-01 0.195D+00 0.917D+00
 Coeff-En:   0.000D+00 0.000D+00 0.000D+00 0.000D+00 0.100D+01
 Coeff:      0.600D-02-0.257D-01-0.914D-01 0.194D+00 0.917D+00
 RMSDP=5.60D-05 MaxDP=2.50D-03 DE=-9.79D-04 OVMax= 0.00D+00

 Cycle   6  Pass 1  IDiag  1:
 RMSU=  3.12D-05    CP:  9.92D-01  1.18D+00  1.04D+00  1.22D+00  1.07D+00
 E= -474.383954965024     Delta-E=       -0.000181513135 Rises=F Damp=F
 DIIS: error= 2.24D-04 at cycle   6 NSaved=   6.
 NSaved= 6 IEnMin= 6 EnMin= -474.383954965024     IErMin= 6 ErrMin= 2.24D-04
 ErrMax= 2.24D-04  0.00D+00 EMaxC= 1.00D-01 BMatC= 6.17D-06 BMatP= 5.66D-05
 IDIUse=3 WtCom= 9.98D-01 WtEn= 2.24D-03
 Coeff-Com:  0.156D-03 0.433D-02-0.195D-01-0.893D-01 0.683D-01 0.104D+01
 Coeff-En:   0.000D+00 0.000D+00 0.000D+00 0.000D+00 0.000D+00 0.100D+01
 Coeff:      0.156D-03 0.432D-02-0.195D-01-0.891D-01 0.681D-01 0.104D+01
 RMSDP=2.84D-05 MaxDP=1.53D-03 DE=-1.82D-04 OVMax= 0.00D+00

 Cycle   7  Pass 1  IDiag  1:
 RMSU=  1.51D-05    CP:  9.92D-01  1.18D+00  1.05D+00  1.25D+00  1.30D+00
                    CP:  1.23D+00
 E= -474.383986690916     Delta-E=       -0.000031725892 Rises=F Damp=F
 DIIS: error= 7.80D-05 at cycle   7 NSaved=   7.
 NSaved= 7 IEnMin= 7 EnMin= -474.383986690916     IErMin= 7 ErrMin= 7.80D-05
 ErrMax= 7.80D-05  0.00D+00 EMaxC= 1.00D-01 BMatC= 1.25D-06 BMatP= 6.17D-06
 IDIUse=1 WtCom= 1.00D+00 WtEn= 0.00D+00
 Coeff-Com: -0.712D-03 0.394D-02 0.646D-02-0.309D-01-0.114D+00 0.167D+00
 Coeff-Com:  0.967D+00
 Coeff:     -0.712D-03 0.394D-02 0.646D-02-0.309D-01-0.114D+00 0.167D+00
 Coeff:      0.967D+00
 RMSDP=1.50D-05 MaxDP=8.89D-04 DE=-3.17D-05 OVMax= 0.00D+00

 Cycle   8  Pass 1  IDiag  1:
 RMSU=  6.03D-06    CP:  9.92D-01  1.18D+00  1.05D+00  1.26D+00  1.37D+00
                    CP:  1.52D+00  1.49D+00
 E= -474.383996213650     Delta-E=       -0.000009522734 Rises=F Damp=F
 DIIS: error= 5.08D-05 at cycle   8 NSaved=   8.
 NSaved= 8 IEnMin= 8 EnMin= -474.383996213650     IErMin= 8 ErrMin= 5.08D-05
 ErrMax= 5.08D-05  0.00D+00 EMaxC= 1.00D-01 BMatC= 3.69D-07 BMatP= 1.25D-06
 IDIUse=1 WtCom= 1.00D+00 WtEn= 0.00D+00
 Coeff-Com:  0.652D-04-0.133D-02 0.283D-02 0.247D-01-0.171D-01-0.176D+00
 Coeff-Com: -0.156D+00 0.132D+01
 Coeff:      0.652D-04-0.133D-02 0.283D-02 0.247D-01-0.171D-01-0.176D+00
 Coeff:     -0.156D+00 0.132D+01
 RMSDP=1.57D-05 MaxDP=7.62D-04 DE=-9.52D-06 OVMax= 0.00D+00

 Cycle   9  Pass 1  IDiag  1:
 RMSU=  3.64D-06    CP:  9.92D-01  1.18D+00  1.05D+00  1.26D+00  1.45D+00
                    CP:  1.71D+00  2.26D+00  1.81D+00
 E= -474.384002284343     Delta-E=       -0.000006070693 Rises=F Damp=F
 DIIS: error= 2.74D-05 at cycle   9 NSaved=   9.
 NSaved= 9 IEnMin= 9 EnMin= -474.384002284343     IErMin= 9 ErrMin= 2.74D-05
 ErrMax= 2.74D-05  0.00D+00 EMaxC= 1.00D-01 BMatC= 2.13D-07 BMatP= 3.69D-07
 IDIUse=1 WtCom= 1.00D+00 WtEn= 0.00D+00
 Coeff-Com:  0.265D-03-0.126D-02-0.312D-02 0.781D-02 0.386D-01 0.695D-02
 Coeff-Com: -0.531D+00 0.308D-01 0.145D+01
 Coeff:      0.265D-03-0.126D-02-0.312D-02 0.781D-02 0.386D-01 0.695D-02
 Coeff:     -0.531D+00 0.308D-01 0.145D+01
 RMSDP=1.64D-05 MaxDP=7.66D-04 DE=-6.07D-06 OVMax= 0.00D+00

 Cycle  10  Pass 1  IDiag  1:
 RMSU=  1.83D-06    CP:  9.92D-01  1.18D+00  1.05D+00  1.26D+00  1.51D+00
                    CP:  1.89D+00  3.00D+00  2.98D+00  2.21D+00
 E= -474.384006510658     Delta-E=       -0.000004226315 Rises=F Damp=F
 DIIS: error= 1.71D-05 at cycle  10 NSaved=  10.
 NSaved=10 IEnMin=10 EnMin= -474.384006510658     IErMin=10 ErrMin= 1.71D-05
 ErrMax= 1.71D-05  0.00D+00 EMaxC= 1.00D-01 BMatC= 6.89D-08 BMatP= 2.13D-07
 IDIUse=1 WtCom= 1.00D+00 WtEn= 0.00D+00
 Coeff-Com: -0.675D-04 0.732D-03-0.805D-03-0.111D-01 0.136D-02 0.972D-01
 Coeff-Com:  0.330D-01-0.209D+00-0.630D+00 0.172D+01
 Coeff:     -0.675D-04 0.732D-03-0.805D-03-0.111D-01 0.136D-02 0.972D-01
 Coeff:      0.330D-01-0.209D+00-0.630D+00 0.172D+01
 RMSDP=1.30D-05 MaxDP=5.31D-04 DE=-4.23D-06 OVMax= 0.00D+00

 Cycle  11  Pass 1  IDiag  1:
 RMSU=  1.02D-05    CP:  9.92D-01  1.18D+00  1.05D+00  1.26D+00  1.55D+00
                    CP:  1.99D+00  3.00D+00  3.00D+00  3.00D+00  3.00D+00
 E= -474.384008409736     Delta-E=       -0.000001899079 Rises=F Damp=F
 DIIS: error= 9.75D-06 at cycle  11 NSaved=  11.
 NSaved=11 IEnMin=11 EnMin= -474.384008409736     IErMin=11 ErrMin= 9.75D-06
 ErrMax= 9.75D-06  0.00D+00 EMaxC= 1.00D-01 BMatC= 2.76D-08 BMatP= 6.89D-08
 IDIUse=1 WtCom= 1.00D+00 WtEn= 0.00D+00
 Coeff-Com: -0.733D-04 0.345D-03 0.982D-03-0.242D-02-0.118D-01 0.644D-02
 Coeff-Com:  0.953D-01 0.146D+00-0.696D+00 0.989D-01 0.136D+01
 Coeff:     -0.733D-04 0.345D-03 0.982D-03-0.242D-02-0.118D-01 0.644D-02
 Coeff:      0.953D-01 0.146D+00-0.696D+00 0.989D-01 0.136D+01
 RMSDP=8.89D-06 MaxDP=3.78D-04 DE=-1.90D-06 OVMax= 0.00D+00

 Cycle  12  Pass 1  IDiag  1:
 RMSU=  4.00D-06    CP:  9.92D-01  1.18D+00  1.05D+00  1.26D+00  1.58D+00
                    CP:  2.04D+00  3.00D+00  3.00D+00  3.00D+00  3.00D+00
                    CP:  1.71D+00
 E= -474.384009067528     Delta-E=       -0.000000657791 Rises=F Damp=F
 DIIS: error= 6.45D-06 at cycle  12 NSaved=  12.
 NSaved=12 IEnMin=12 EnMin= -474.384009067528     IErMin=12 ErrMin= 6.45D-06
 ErrMax= 6.45D-06  0.00D+00 EMaxC= 1.00D-01 BMatC= 6.99D-09 BMatP= 2.76D-08
 IDIUse=1 WtCom= 1.00D+00 WtEn= 0.00D+00
 Coeff-Com:  0.331D-04-0.266D-03 0.640D-04 0.362D-02 0.278D-03-0.182D-01
 Coeff-Com: -0.628D-01 0.132D+00 0.210D+00-0.410D+00-0.397D+00 0.154D+01
 Coeff:      0.331D-04-0.266D-03 0.640D-04 0.362D-02 0.278D-03-0.182D-01
 Coeff:     -0.628D-01 0.132D+00 0.210D+00-0.410D+00-0.397D+00 0.154D+01
 RMSDP=3.72D-06 MaxDP=1.52D-04 DE=-6.58D-07 OVMax= 0.00D+00

 Cycle  13  Pass 1  IDiag  1:
 RMSU=  1.14D-06    CP:  9.92D-01  1.18D+00  1.05D+00  1.26D+00  1.59D+00
                    CP:  2.05D+00  3.00D+00  3.00D+00  3.00D+00  3.00D+00
                    CP:  1.96D+00  1.59D+00
 E= -474.384009228007     Delta-E=       -0.000000160479 Rises=F Damp=F
 DIIS: error= 3.49D-06 at cycle  13 NSaved=  13.
 NSaved=13 IEnMin=13 EnMin= -474.384009228007     IErMin=13 ErrMin= 3.49D-06
 ErrMax= 3.49D-06  0.00D+00 EMaxC= 1.00D-01 BMatC= 3.27D-09 BMatP= 6.99D-09
 IDIUse=1 WtCom= 1.00D+00 WtEn= 0.00D+00
 Coeff-Com:  0.180D-04-0.817D-04-0.301D-03 0.926D-03 0.158D-02 0.526D-02
 Coeff-Com: -0.456D-01-0.510D-02 0.139D+00 0.324D-01-0.460D+00 0.185D+00
 Coeff-Com:  0.115D+01
 Coeff:      0.180D-04-0.817D-04-0.301D-03 0.926D-03 0.158D-02 0.526D-02
 Coeff:     -0.456D-01-0.510D-02 0.139D+00 0.324D-01-0.460D+00 0.185D+00
 Coeff:      0.115D+01
 RMSDP=1.89D-06 MaxDP=7.30D-05 DE=-1.60D-07 OVMax= 0.00D+00

 Cycle  14  Pass 1  IDiag  1:
 RMSU=  2.98D-07    CP:  9.92D-01  1.18D+00  1.05D+00  1.26D+00  1.60D+00
                    CP:  2.05D+00  3.00D+00  3.00D+00  3.00D+00  3.00D+00
                    CP:  2.06D+00  1.87D+00  1.78D+00
 E= -474.384009284689     Delta-E=       -0.000000056682 Rises=F Damp=F
 DIIS: error= 2.96D-06 at cycle  14 NSaved=  14.
 NSaved=14 IEnMin=14 EnMin= -474.384009284689     IErMin=14 ErrMin= 2.96D-06
 ErrMax= 2.96D-06  0.00D+00 EMaxC= 1.00D-01 BMatC= 1.61D-09 BMatP= 3.27D-09
 IDIUse=1 WtCom= 1.00D+00 WtEn= 0.00D+00
 Coeff-Com: -0.259D-04 0.190D-03-0.124D-04-0.199D-02-0.311D-02 0.174D-01
 Coeff-Com:  0.326D-01-0.519D-01-0.176D+00 0.276D+00 0.233D+00-0.732D+00
 Coeff-Com: -0.809D+00 0.222D+01
 Coeff:     -0.259D-04 0.190D-03-0.124D-04-0.199D-02-0.311D-02 0.174D-01
 Coeff:      0.326D-01-0.519D-01-0.176D+00 0.276D+00 0.233D+00-0.732D+00
 Coeff:     -0.809D+00 0.222D+01
 RMSDP=2.47D-06 MaxDP=1.04D-04 DE=-5.67D-08 OVMax= 0.00D+00

 Cycle  15  Pass 1  IDiag  1:
 RMSU=  2.82D-07    CP:  9.92D-01  1.18D+00  1.06D+00  1.26D+00  1.61D+00
                    CP:  2.04D+00  3.00D+00  3.00D+00  3.00D+00  3.00D+00
                    CP:  2.16D+00  2.22D+00  3.00D+00  2.87D+00
 E= -474.384009332100     Delta-E=       -0.000000047410 Rises=F Damp=F
 DIIS: error= 1.34D-06 at cycle  15 NSaved=  15.
 NSaved=15 IEnMin=15 EnMin= -474.384009332100     IErMin=15 ErrMin= 1.34D-06
 ErrMax= 1.34D-06  0.00D+00 EMaxC= 1.00D-01 BMatC= 4.27D-10 BMatP= 1.61D-09
 IDIUse=1 WtCom= 1.00D+00 WtEn= 0.00D+00
 Coeff-Com: -0.582D-05 0.224D-04 0.130D-03-0.380D-04-0.186D-02 0.156D-03
 Coeff-Com:  0.126D-01 0.106D-01-0.447D-01-0.293D-01 0.135D+00 0.795D-01
 Coeff-Com: -0.658D+00 0.117D+00 0.138D+01
 Coeff:     -0.582D-05 0.224D-04 0.130D-03-0.380D-04-0.186D-02 0.156D-03
 Coeff:      0.126D-01 0.106D-01-0.447D-01-0.293D-01 0.135D+00 0.795D-01
 Coeff:     -0.658D+00 0.117D+00 0.138D+01
 RMSDP=1.31D-06 MaxDP=5.70D-05 DE=-4.74D-08 OVMax= 0.00D+00

 Cycle  16  Pass 1  IDiag  1:
 RMSU=  7.21D-07    CP:  9.92D-01  1.18D+00  1.06D+00  1.26D+00  1.61D+00
                    CP:  2.04D+00  3.00D+00  3.00D+00  3.00D+00  3.00D+00
                    CP:  2.20D+00  2.39D+00  3.00D+00  3.00D+00  3.00D+00
 E= -474.384009342589     Delta-E=       -0.000000010489 Rises=F Damp=F
 DIIS: error= 7.16D-07 at cycle  16 NSaved=  16.
 NSaved=16 IEnMin=16 EnMin= -474.384009342589     IErMin=16 ErrMin= 7.16D-07
 ErrMax= 7.16D-07  0.00D+00 EMaxC= 1.00D-01 BMatC= 5.88D-11 BMatP= 4.27D-10
 IDIUse=1 WtCom= 1.00D+00 WtEn= 0.00D+00
 Coeff-Com:  0.711D-05-0.496D-04-0.315D-05 0.563D-03 0.488D-03-0.341D-02
 Coeff-Com: -0.102D-01 0.122D-01 0.503D-01-0.684D-01-0.714D-01 0.204D+00
 Coeff-Com:  0.154D+00-0.480D+00-0.103D+00 0.132D+01
 Coeff:      0.711D-05-0.496D-04-0.315D-05 0.563D-03 0.488D-03-0.341D-02
 Coeff:     -0.102D-01 0.122D-01 0.503D-01-0.684D-01-0.714D-01 0.204D+00
 Coeff:      0.154D+00-0.480D+00-0.103D+00 0.132D+01
 RMSDP=4.50D-07 MaxDP=2.04D-05 DE=-1.05D-08 OVMax= 0.00D+00

 Cycle  17  Pass 1  IDiag  1:
 RMSU=  2.39D-07    CP:  9.92D-01  1.18D+00  1.06D+00  1.26D+00  1.61D+00
                    CP:  2.04D+00  3.00D+00  3.00D+00  3.00D+00  3.00D+00
                    CP:  2.21D+00  2.44D+00  3.00D+00  3.00D+00  3.00D+00
                    CP:  1.36D+00
 E= -474.384009343685     Delta-E=       -0.000000001096 Rises=F Damp=F
 DIIS: error= 5.00D-07 at cycle  17 NSaved=  17.
 NSaved=17 IEnMin=17 EnMin= -474.384009343685     IErMin=17 ErrMin= 5.00D-07
 ErrMax= 5.00D-07  0.00D+00 EMaxC= 1.00D-01 BMatC= 7.03D-12 BMatP= 5.88D-11
 IDIUse=1 WtCom= 1.00D+00 WtEn= 0.00D+00
 Coeff-Com:  0.656D-06-0.204D-05-0.229D-04 0.529D-05 0.222D-03 0.193D-03
 Coeff-Com: -0.212D-02-0.143D-02 0.566D-02 0.401D-02-0.173D-01-0.110D-01
 Coeff-Com:  0.694D-01 0.235D-01-0.183D+00-0.382D-01 0.115D+01
 Coeff:      0.656D-06-0.204D-05-0.229D-04 0.529D-05 0.222D-03 0.193D-03
 Coeff:     -0.212D-02-0.143D-02 0.566D-02 0.401D-02-0.173D-01-0.110D-01
 Coeff:      0.694D-01 0.235D-01-0.183D+00-0.382D-01 0.115D+01
 RMSDP=6.14D-08 MaxDP=3.74D-06 DE=-1.10D-09 OVMax= 0.00D+00

 Cycle  18  Pass 1  IDiag  1:
 RMSU=  3.14D-08    CP:  9.92D-01  1.18D+00  1.06D+00  1.26D+00  1.61D+00
                    CP:  2.04D+00  3.00D+00  3.00D+00  3.00D+00  3.00D+00
                    CP:  2.22D+00  2.45D+00  3.00D+00  3.00D+00  3.00D+00
                    CP:  1.39D+00  1.14D+00
 E= -474.384009343770     Delta-E=       -0.000000000085 Rises=F Damp=F
 DIIS: error= 2.67D-07 at cycle  18 NSaved=  18.
 NSaved=18 IEnMin=18 EnMin= -474.384009343770     IErMin=18 ErrMin= 2.67D-07
 ErrMax= 2.67D-07  0.00D+00 EMaxC= 1.00D-01 BMatC= 1.83D-12 BMatP= 7.03D-12
 IDIUse=1 WtCom= 1.00D+00 WtEn= 0.00D+00
 Coeff-Com: -0.202D-05 0.139D-04 0.130D-05-0.154D-03-0.131D-03 0.903D-03
 Coeff-Com:  0.275D-02-0.268D-02-0.134D-01 0.169D-01 0.205D-01-0.519D-01
 Coeff-Com: -0.478D-01 0.121D+00 0.367D-01-0.347D+00-0.114D+00 0.138D+01
 Coeff:     -0.202D-05 0.139D-04 0.130D-05-0.154D-03-0.131D-03 0.903D-03
 Coeff:      0.275D-02-0.268D-02-0.134D-01 0.169D-01 0.205D-01-0.519D-01
 Coeff:     -0.478D-01 0.121D+00 0.367D-01-0.347D+00-0.114D+00 0.138D+01
 RMSDP=5.10D-08 MaxDP=2.77D-06 DE=-8.55D-11 OVMax= 0.00D+00

 Cycle  19  Pass 1  IDiag  1:
 RMSU=  9.59D-09    CP:  9.92D-01  1.18D+00  1.06D+00  1.26D+00  1.61D+00
                    CP:  2.04D+00  3.00D+00  3.00D+00  3.00D+00  3.00D+00
                    CP:  2.22D+00  2.45D+00  3.00D+00  3.00D+00  3.00D+00
                    CP:  1.42D+00  1.27D+00  1.63D+00
 E= -474.384009343768     Delta-E=        0.000000000003 Rises=F Damp=F
 DIIS: error= 9.00D-08 at cycle  19 NSaved=  19.
 NSaved=19 IEnMin=18 EnMin= -474.384009343770     IErMin=19 ErrMin= 9.00D-08
 ErrMax= 9.00D-08  0.00D+00 EMaxC= 1.00D-01 BMatC= 2.17D-13 BMatP= 1.83D-12
 IDIUse=1 WtCom= 1.00D+00 WtEn= 0.00D+00
 Coeff-Com: -0.110D-07-0.224D-06 0.411D-05 0.221D-05-0.218D-04-0.643D-04
 Coeff-Com:  0.147D-03 0.295D-03-0.564D-03-0.946D-03 0.195D-02 0.367D-02
 Coeff-Com: -0.681D-02-0.102D-01 0.272D-01 0.281D-01-0.169D+00-0.268D-01
 Coeff-Com:  0.115D+01
 Coeff:     -0.110D-07-0.224D-06 0.411D-05 0.221D-05-0.218D-04-0.643D-04
 Coeff:      0.147D-03 0.295D-03-0.564D-03-0.946D-03 0.195D-02 0.367D-02
 Coeff:     -0.681D-02-0.102D-01 0.272D-01 0.281D-01-0.169D+00-0.268D-01
 Coeff:      0.115D+01
 RMSDP=8.39D-09 MaxDP=8.67D-07 DE= 2.73D-12 OVMax= 0.00D+00

 SCF Done:  E(RZINDO/S) =  -474.384009344     A.U. after   19 cycles
            NFock= 19  Conv=0.84D-08     -V/T= 0.9476
 KE=-9.059866864214D+03 PE=-1.451246134820D-06 EE= 4.392843730991D+03
 Leave Link  502 at Thu May  5 13:40:52 2022, MaxMem=  6710886400 cpu:              22.2 elap:               0.9
 (Enter /sw/apps/gaussian-16.0/g16/l801.exe)
 Range of M.O.s used for correlation:     1   338
 NBasis=   338 NAE=   176 NBE=   176 NFC=     0 NFV=     0
 NROrb=    338 NOA=   176 NOB=   176 NVA=   162 NVB=   162
 Leave Link  801 at Thu May  5 13:40:52 2022, MaxMem=  6710886400 cpu:               0.4 elap:               0.0
 (Enter /sw/apps/gaussian-16.0/g16/l914.exe)
 RHF ground state
 Two-electron integral symmetry not used.
 MDV=  6710886400 DFT=F DoStab=F Mixed=F DoRPA=F DoScal=F NonHer=F
 Making orbital integer symmetry assigments:
 Orbital symmetries:
       Occupied  (A) (A) (A) (A) (A) (A) (A) (A) (A) (A) (A) (A)
                 (A) (A) (A) (A) (A) (A) (A) (A) (A) (A) (A) (A)
                 (A) (A) (A) (A) (A) (A) (A) (A) (A) (A) (A) (A)
                 (A) (A) (A) (A) (A) (A) (A) (A) (A) (A) (A) (A)
                 (A) (A) (A) (A) (A) (A) (A) (A) (A) (A) (A) (A)
                 (A) (A) (A) (A) (A) (A) (A) (A) (A) (A) (A) (A)
                 (A) (A) (A) (A) (A) (A) (A) (A) (A) (A) (A) (A)
                 (A) (A) (A) (A) (A) (A) (A) (A) (A) (A) (A) (A)
                 (A) (A) (A) (A) (A) (A) (A) (A) (A) (A) (A) (A)
                 (A) (A) (A) (A) (A) (A) (A) (A) (A) (A) (A) (A)
                 (A) (A) (A) (A) (A) (A) (A) (A) (A) (A) (A) (A)
                 (A) (A) (A) (A) (A) (A) (A) (A) (A) (A) (A) (A)
                 (A) (A) (A) (A) (A) (A) (A) (A) (A) (A) (A) (A)
                 (A) (A) (A) (A) (A) (A) (A) (A) (A) (A) (A) (A)
                 (A) (A) (A) (A) (A) (A) (A) (A)
       Virtual   (A) (A) (A) (A) (A) (A) (A) (A) (A) (A) (A) (A)
                 (A) (A) (A) (A) (A) (A) (A) (A) (A) (A) (A) (A)
                 (A) (A) (A) (A) (A) (A) (A) (A) (A) (A) (A) (A)
                 (A) (A) (A) (A) (A) (A) (A) (A) (A) (A) (A) (A)
                 (A) (A) (A) (A) (A) (A) (A) (A) (A) (A) (A) (A)
                 (A) (A) (A) (A) (A) (A) (A) (A) (A) (A) (A) (A)
                 (A) (A) (A) (A) (A) (A) (A) (A) (A) (A) (A) (A)
                 (A) (A) (A) (A) (A) (A) (A) (A) (A) (A) (A) (A)
                 (A) (A) (A) (A) (A) (A) (A) (A) (A) (A) (A) (A)
                 (A) (A) (A) (A) (A) (A) (A) (A) (A) (A) (A) (A)
                 (A) (A) (A) (A) (A) (A) (A) (A) (A) (A) (A) (A)
                 (A) (A) (A) (A) (A) (A) (A) (A) (A) (A) (A) (A)
                 (A) (A) (A) (A) (A) (A) (A) (A) (A) (A) (A) (A)
                 (A) (A) (A) (A) (A) (A)
    20 initial guesses have been made.
 Convergence on wavefunction:    0.001000000000000
 Davidson Disk Diagonalization:  ConvIn= 1.00D-03 SkipCon=T Conv= 1.00D-03.
 Max sub-space:  2000 roots to seek:    20 dimension of matrix:        57024
 Iteration     1 Dimension    20 NMult     0 NNew     20
 CISAX will form    20 AO SS matrices at one time.
 NMat=    20 NSing=    20 JSym2X= 0.
 New state      3 was old state      5
 New state      5 was old state      3
 Excitation Energies [eV] at current iteration:
 Root      1 :     1.622871112645809
 Root      2 :     2.127523107049704
 Root      3 :     3.108971990138419
 Root      4 :     3.368096382314181
 Root      5 :     3.452717241310292
 Root      6 :     3.481787482700180
 Root      7 :     3.666814664395882
 Root      8 :     3.778073843302277
 Root      9 :     3.911232013906282
 Root     10 :     4.010096165769595
 Root     11 :     4.193498903682131
 Root     12 :     4.232596489929216
 Root     13 :     4.326681837737369
 Root     14 :     4.387871896828565
 Root     15 :     4.430651855629100
 Root     16 :     4.510572072281978
 Root     17 :     4.570812773136512
 Root     18 :     4.708987181246092
 Root     19 :     5.016807003307212
 Root     20 :     5.057187863517575
 Iteration     2 Dimension    40 NMult    20 NNew     20
 CISAX will form    20 AO SS matrices at one time.
 NMat=    20 NSing=    20 JSym2X= 0.
 Root      1 not converged, maximum delta is    0.048406271975918
 Root      2 not converged, maximum delta is    0.030583253093708
 New state      3 was old state      4
 Root      3 not converged, maximum delta is    0.447214165454391
 New state      4 was old state      3
 Root      4 not converged, maximum delta is    0.321504965540996
 Root      5 not converged, maximum delta is    0.355182991714218
 Excitation Energies [eV] at current iteration:
 Root      1 :     1.272114763979272   Change is   -0.350756348666537
 Root      2 :     1.926841454847790   Change is   -0.200681652201914
 Root      3 :     3.045647837921495   Change is   -0.322448544392686
 Root      4 :     3.077855735865844   Change is   -0.031116254272575
 Root      5 :     3.171944152948559   Change is   -0.280773088361732
 Root      6 :     3.285362932569536   Change is   -0.196424550130644
 Root      7 :     3.411520308459598   Change is   -0.255294355936284
 Root      8 :     3.559517337332126   Change is   -0.218556505970152
 Root      9 :     3.634383588182975   Change is   -0.375712577586621
 Root     10 :     3.679405124714395   Change is   -0.231826889191886
 Root     11 :     3.699548176915649   Change is   -0.688323719912916
 Root     12 :     3.798347246590939   Change is   -0.772465526545573
 Root     13 :     3.831187239661002   Change is   -0.362311664021129
 Root     14 :     4.070897010627029   Change is   -0.255784827110339
 Root     15 :     4.131326094889013   Change is   -0.101270395040204
 Root     16 :     4.188094255242835   Change is   -0.242557600386265
 Root     17 :     4.329763935229824   Change is   -0.180808137052154
 Root     18 :     4.457405683798672   Change is   -0.251581497447421
 Root     19 :     4.988611240866100   Change is   -0.068576622651474
 Root     20 :     5.011235652295264   Change is   -0.005571351011948
 Iteration     3 Dimension    45 NMult    40 NNew      5
 CISAX will form     5 AO SS matrices at one time.
 NMat=     5 NSing=     5 JSym2X= 0.
 Root      1 not converged, maximum delta is    0.010720556855888
 Root      2 not converged, maximum delta is    0.018607732082579
 Root      3 not converged, maximum delta is    0.083136230139729
 Root      4 not converged, maximum delta is    0.105593066670081
 Root      5 not converged, maximum delta is    0.093622586936690
 Excitation Energies [eV] at current iteration:
 Root      1 :     1.254984571568690   Change is   -0.017130192410583
 Root      2 :     1.901233104383007   Change is   -0.025608350464783
 Root      3 :     3.024395746642096   Change is   -0.021252091279399
 Root      4 :     3.063933792973284   Change is   -0.013921942892560
 Root      5 :     3.142448782763556   Change is   -0.029495370185004
 Iteration     4 Dimension    50 NMult    45 NNew      5
 CISAX will form     5 AO SS matrices at one time.
 NMat=     5 NSing=     5 JSym2X= 0.
 Root      1 not converged, maximum delta is    0.002255001711168
 Root      2 not converged, maximum delta is    0.002995859559952
 Root      3 not converged, maximum delta is    0.022056466603688
 Root      4 not converged, maximum delta is    0.031482819145242
 Root      5 not converged, maximum delta is    0.028414030614310
 Excitation Energies [eV] at current iteration:
 Root      1 :     1.254185532832923   Change is   -0.000799038735766
 Root      2 :     1.900557187717764   Change is   -0.000675916665243
 Root      3 :     3.021096034309561   Change is   -0.003299712332535
 Root      4 :     3.059793590508626   Change is   -0.004140202464658
 Root      5 :     3.137433556331103   Change is   -0.005015226432453
 Iteration     5 Dimension    55 NMult    50 NNew      5
 CISAX will form     5 AO SS matrices at one time.
 NMat=     5 NSing=     5 JSym2X= 0.
 Root      1 has converged.
 Root      2 has converged.
 Root      3 not converged, maximum delta is    0.056313397560400
 Root      4 not converged, maximum delta is    0.110139707187930
 Root      5 not converged, maximum delta is    0.228841776913461
 Excitation Energies [eV] at current iteration:
 Root      1 :     1.254136172834969   Change is   -0.000049359997954
 Root      2 :     1.900516298551465   Change is   -0.000040889166299
 Root      3 :     3.018712369810050   Change is   -0.002383664499512
 Root      4 :     3.049486725501040   Change is   -0.010306865007586
 Root      5 :     3.115934410260222   Change is   -0.021499146070881
 Iteration     6 Dimension    58 NMult    55 NNew      3
 CISAX will form     3 AO SS matrices at one time.
 NMat=     3 NSing=     3 JSym2X= 0.
 Root      1 has converged.
 Root      2 has converged.
 Root      3 not converged, maximum delta is    0.232022632231058
 Root      4 not converged, maximum delta is    0.430012622091869
 Root      5 not converged, maximum delta is    0.405526960839963
 Excitation Energies [eV] at current iteration:
 Root      1 :     1.254135907470652   Change is   -0.000000265364318
 Root      2 :     1.900516128016832   Change is   -0.000000170534633
 Root      3 :     3.004155725673249   Change is   -0.014556644136801
 Root      4 :     3.028746048140718   Change is   -0.020740677360323
 Root      5 :     3.080704866598008   Change is   -0.035229543662213
 Iteration     7 Dimension    61 NMult    58 NNew      3
 CISAX will form     3 AO SS matrices at one time.
 NMat=     3 NSing=     3 JSym2X= 0.
 Root      1 has converged.
 Root      2 has converged.
 Root      3 not converged, maximum delta is    0.085420016957351
 Root      4 not converged, maximum delta is    0.071877613072460
 Root      5 not converged, maximum delta is    0.045664079684482
 Excitation Energies [eV] at current iteration:
 Root      1 :     1.254135719946992   Change is   -0.000000187523660
 Root      2 :     1.900515936955250   Change is   -0.000000191061581
 Root      3 :     2.994293599841507   Change is   -0.009862125831742
 Root      4 :     3.026219612446868   Change is   -0.002526435693850
 Root      5 :     3.076648156648306   Change is   -0.004056709949703
 Iteration     8 Dimension    64 NMult    61 NNew      3
 CISAX will form     3 AO SS matrices at one time.
 NMat=     3 NSing=     3 JSym2X= 0.
 Root      1 has converged.
 Root      2 has converged.
 Root      3 not converged, maximum delta is    0.010870769159708
 Root      4 not converged, maximum delta is    0.007413663387513
 Root      5 not converged, maximum delta is    0.074372495674686
 Excitation Energies [eV] at current iteration:
 Root      1 :     1.254135677384850   Change is   -0.000000042562142
 Root      2 :     1.900515906859025   Change is   -0.000000030096226
 Root      3 :     2.992816279212160   Change is   -0.001477320629348
 Root      4 :     3.025954120728950   Change is   -0.000265491717919
 Root      5 :     3.075108585249815   Change is   -0.001539571398490
 Iteration     9 Dimension    67 NMult    64 NNew      3
 CISAX will form     3 AO SS matrices at one time.
 NMat=     3 NSing=     3 JSym2X= 0.
 Root      1 has converged.
 Root      2 has converged.
 Root      3 not converged, maximum delta is    0.012152763303571
 Root      4 not converged, maximum delta is    0.025432756223927
 Root      5 not converged, maximum delta is    0.388085473228407
 Excitation Energies [eV] at current iteration:
 Root      1 :     1.254135648753179   Change is   -0.000000028631671
 Root      2 :     1.900515837052832   Change is   -0.000000069806193
 Root      3 :     2.992540263523592   Change is   -0.000276015688568
 Root      4 :     3.025822548864897   Change is   -0.000131571864053
 Root      5 :     3.043609452061138   Change is   -0.031499133188677
 Iteration    10 Dimension    70 NMult    67 NNew      3
 CISAX will form     3 AO SS matrices at one time.
 NMat=     3 NSing=     3 JSym2X= 0.
 Root      1 has converged.
 Root      2 has converged.
 Root      3 not converged, maximum delta is    0.008225931614811
 Root      4 not converged, maximum delta is    0.049741140573367
 Root      5 not converged, maximum delta is    0.070100995349273
 Excitation Energies [eV] at current iteration:
 Root      1 :     1.254135648215271   Change is   -0.000000000537908
 Root      2 :     1.900515806545209   Change is   -0.000000030507623
 Root      3 :     2.992431508026240   Change is   -0.000108755497352
 Root      4 :     3.025634721084950   Change is   -0.000187827779947
 Root      5 :     3.032438245846519   Change is   -0.011171206214620
 Iteration    11 Dimension    73 NMult    70 NNew      3
 CISAX will form     3 AO SS matrices at one time.
 NMat=     3 NSing=     3 JSym2X= 0.
 Root      1 has converged.
 Root      2 has converged.
 Root      3 not converged, maximum delta is    0.004662919085475
 Root      4 not converged, maximum delta is    0.059807292014865
 Root      5 not converged, maximum delta is    0.066758243183836
 Excitation Energies [eV] at current iteration:
 Root      1 :     1.254135646519405   Change is   -0.000000001695866
 Root      2 :     1.900515764360561   Change is   -0.000000042184647
 Root      3 :     2.992366395913478   Change is   -0.000065112112762
 Root      4 :     3.025415715885514   Change is   -0.000219005199436
 Root      5 :     3.029307024349712   Change is   -0.003131221496807
 Iteration    12 Dimension    76 NMult    73 NNew      3
 CISAX will form     3 AO SS matrices at one time.
 NMat=     3 NSing=     3 JSym2X= 0.
 Root      1 has converged.
 Root      2 has converged.
 Root      3 not converged, maximum delta is    0.001326525233237
 Root      4 not converged, maximum delta is    0.026542439089879
 Root      5 not converged, maximum delta is    0.028136091767345
 Excitation Energies [eV] at current iteration:
 Root      1 :     1.254135646149946   Change is   -0.000000000369459
 Root      2 :     1.900515712768850   Change is   -0.000000051591711
 Root      3 :     2.992346942363129   Change is   -0.000019453550349
 Root      4 :     3.025309765356095   Change is   -0.000105950529419
 Root      5 :     3.028629377548654   Change is   -0.000677646801058
 Iteration    13 Dimension    79 NMult    76 NNew      3
 CISAX will form     3 AO SS matrices at one time.
 NMat=     3 NSing=     3 JSym2X= 0.
 Root      1 has converged.
 Root      2 has converged.
 Root      3 has converged.
 Root      4 not converged, maximum delta is    0.004659921604720
 Root      5 not converged, maximum delta is    0.004948065751514
 Excitation Energies [eV] at current iteration:
 Root      1 :     1.254135635949265   Change is   -0.000000010200681
 Root      2 :     1.900515583786282   Change is   -0.000000128982568
 Root      3 :     2.992343886000338   Change is   -0.000003056362791
 Root      4 :     3.025290109860656   Change is   -0.000019655495440
 Root      5 :     3.028530227617642   Change is   -0.000099149931011
 Iteration    14 Dimension    81 NMult    79 NNew      2
 CISAX will form     2 AO SS matrices at one time.
 NMat=     2 NSing=     2 JSym2X= 0.
 Root      1 has converged.
 Root      2 has converged.
 Root      3 has converged.
 Root      4 has converged.
 Root      5 has converged.
 Excitation Energies [eV] at current iteration:
 Root      1 :     1.254135612492446   Change is   -0.000000023456819
 Root      2 :     1.900515556726855   Change is   -0.000000027059427
 Root      3 :     2.992343505995436   Change is   -0.000000380004903
 Root      4 :     3.025287142608415   Change is   -0.000002967252240
 Root      5 :     3.028515968248455   Change is   -0.000014259369187
 Convergence achieved on expansion vectors.
 ***********************************************************************
 Excited states from <AA,BB:AA,BB> singles matrix:
 ***********************************************************************
 
 1PDM for each excited state written to RWF  633
 Ground to excited state transition densities written to RWF  633
 Ground to excited state transition electric dipole moments (Au):
       state          X           Y           Z        Dip. S.      Osc.
         1         0.4892     -4.2561      1.2902     20.0186      0.6151
         2        -1.0950     -0.4918     -0.3196      1.5430      0.0718
         3        -1.5406     -0.2303     -0.4177      2.6009      0.1907
         4        -2.1749     -0.6172     -0.3647      5.2442      0.3887
         5        -1.2492     -0.3415     -0.2285      1.7295      0.1283
 Ground to excited state transition velocity dipole moments (Au):
       state          X           Y           Z        Dip. S.      Osc.
         1         0.0331     -0.0449      0.0246      0.0037      0.0537
         2         0.0111      0.0121      0.0112      0.0004      0.0038
         3         0.0499      0.0084      0.0082      0.0026      0.0159
         4         0.0752      0.0155      0.0209      0.0063      0.0380
         5         0.0433      0.0106      0.0047      0.0020      0.0120
 Ground to excited state transition magnetic dipole moments (Au):
       state          X           Y           Z
         1        -0.0615     -0.1437     -0.1821
         2         0.1197     -0.2171     -0.3041
         3         0.1091      0.4187     -0.2947
         4        -0.4326     -0.4373      0.4537
         5         0.5658      0.1113      0.2200
 Ground to excited state transition velocity quadrupole moments (Au):
       state          XX          YY          ZZ          XY          XZ          YZ
         1         0.6529      0.0737     -0.0401     -0.5987      0.2450     -0.0440
         2         0.1028      0.0269      0.0087      0.0745      0.1371     -0.0102
         3         0.7724      0.0021      0.0217      0.0421      0.1477      0.0416
         4         1.8050     -0.5800      0.0845      0.0082      0.3685      0.0902
         5         1.0700     -0.3080      0.0693      0.0654      0.1378     -0.0518
 <0|del|b> * <b|rxdel|0> + <0|del|b> * <b|delr+rdel|0>
 Rotatory Strengths (R) in cgs (10**-40 erg-esu-cm/Gauss)
       state          XX          YY          ZZ    R(velocity)    E-M Angle
         1       -13.1826     51.7435    -39.3585     -0.2659       90.00
         2       -34.6728    -15.2883      2.4236    -15.8459      127.01
         3         0.6098     15.2778     26.0696     13.9857       75.92
         4        -8.9073    -52.2948   -128.4997    -63.2339      119.35
         5         3.3702     73.0223     93.3305     56.5743       15.07
 1/2[<0|r|b>*<b|rxdel|0> + (<0|rxdel|b>*<b|r|0>)*]
 Rotatory Strengths (R) in cgs (10**-40 erg-esu-cm/Gauss)
       state          XX          YY          ZZ     R(length)
         1        21.2639   -432.4025    166.1252    -81.6711
         2        92.6738    -75.5181    -68.7322    -17.1922
         3       118.9006     68.1982    -87.0471     33.3506
         4      -665.3067   -190.8394    116.9998   -246.3821
         5       499.8740     26.8913     35.5514    187.4389
  1/2[<0|del|b>*<b|r|0> + (<0|r|b>*<b|del|0>)*] (Au)
       state          X           Y           Z        Dip. S.   Osc.(frdel)
         1         0.0162      0.1911      0.0317     -0.2390     -0.1593
         2        -0.0122     -0.0059     -0.0036      0.0217      0.0145
         3        -0.0769     -0.0019     -0.0034      0.0822      0.0548
         4        -0.1637     -0.0095     -0.0076      0.1808      0.1206
         5        -0.0541     -0.0036     -0.0011      0.0588      0.0392

 Excitation energies and oscillator strengths:
 
 Excited State   1:      Singlet-A      1.2541 eV  988.60 nm  f=0.6151  <S**2>=0.000
     175 ->178         0.19124
     176 ->177         0.66317
 This state for optimization and/or second-order correction.
 Total Energy, E(CIS/TDA) =  -474.337920708    
 Copying the excited state density for this state as the 1-particle RhoCI density.
 
 Excited State   2:      Singlet-A      1.9005 eV  652.37 nm  f=0.0718  <S**2>=0.000
     175 ->177         0.56665
     176 ->178        -0.39512
 
 Excited State   3:      Singlet-A      2.9923 eV  414.34 nm  f=0.1907  <S**2>=0.000
     170 ->177         0.27123
     170 ->179         0.25820
     170 ->181         0.30664
     170 ->185         0.16116
     170 ->187         0.11837
     170 ->201        -0.10376
     171 ->177         0.11476
     173 ->177         0.13933
     175 ->177         0.15665
     176 ->178         0.25028
 
 Excited State   4:      Singlet-A      3.0253 eV  409.83 nm  f=0.3887  <S**2>=0.000
     168 ->177        -0.15340
     168 ->179         0.16923
     168 ->181        -0.12641
     170 ->177        -0.10893
     170 ->181        -0.12971
     171 ->177         0.12470
     175 ->177         0.21545
     176 ->178         0.34688
     176 ->179         0.30832
     176 ->180         0.20604
 
 Excited State   5:      Singlet-A      3.0285 eV  409.39 nm  f=0.1283  <S**2>=0.000
     168 ->177         0.27458
     168 ->178        -0.13282
     168 ->179        -0.34792
     168 ->181         0.23389
     168 ->185        -0.19932
     168 ->187         0.11279
     175 ->177         0.12357
     176 ->178         0.19363
     176 ->179         0.21457
     176 ->180         0.13192
 SavETr:  write IOETrn=   770 NScale= 10 NData=  16 NLR=1 NState=    5 LETran=     100.
 Leave Link  914 at Thu May  5 13:40:57 2022, MaxMem=  6710886400 cpu:             118.1 elap:               4.9
 (Enter /sw/apps/gaussian-16.0/g16/l601.exe)
 Copying SCF densities to generalized density rwf, IOpCl= 0 IROHF=0.

 **********************************************************************

            Population analysis using the SCF density.

 **********************************************************************

 Orbital symmetries:
       Occupied  (A) (A) (A) (A) (A) (A) (A) (A) (A) (A) (A) (A)
                 (A) (A) (A) (A) (A) (A) (A) (A) (A) (A) (A) (A)
                 (A) (A) (A) (A) (A) (A) (A) (A) (A) (A) (A) (A)
                 (A) (A) (A) (A) (A) (A) (A) (A) (A) (A) (A) (A)
                 (A) (A) (A) (A) (A) (A) (A) (A) (A) (A) (A) (A)
                 (A) (A) (A) (A) (A) (A) (A) (A) (A) (A) (A) (A)
                 (A) (A) (A) (A) (A) (A) (A) (A) (A) (A) (A) (A)
                 (A) (A) (A) (A) (A) (A) (A) (A) (A) (A) (A) (A)
                 (A) (A) (A) (A) (A) (A) (A) (A) (A) (A) (A) (A)
                 (A) (A) (A) (A) (A) (A) (A) (A) (A) (A) (A) (A)
                 (A) (A) (A) (A) (A) (A) (A) (A) (A) (A) (A) (A)
                 (A) (A) (A) (A) (A) (A) (A) (A) (A) (A) (A) (A)
                 (A) (A) (A) (A) (A) (A) (A) (A) (A) (A) (A) (A)
                 (A) (A) (A) (A) (A) (A) (A) (A) (A) (A) (A) (A)
                 (A) (A) (A) (A) (A) (A) (A) (A)
       Virtual   (A) (A) (A) (A) (A) (A) (A) (A) (A) (A) (A) (A)
                 (A) (A) (A) (A) (A) (A) (A) (A) (A) (A) (A) (A)
                 (A) (A) (A) (A) (A) (A) (A) (A) (A) (A) (A) (A)
                 (A) (A) (A) (A) (A) (A) (A) (A) (A) (A) (A) (A)
                 (A) (A) (A) (A) (A) (A) (A) (A) (A) (A) (A) (A)
                 (A) (A) (A) (A) (A) (A) (A) (A) (A) (A) (A) (A)
                 (A) (A) (A) (A) (A) (A) (A) (A) (A) (A) (A) (A)
                 (A) (A) (A) (A) (A) (A) (A) (A) (A) (A) (A) (A)
                 (A) (A) (A) (A) (A) (A) (A) (A) (A) (A) (A) (A)
                 (A) (A) (A) (A) (A) (A) (A) (A) (A) (A) (A) (A)
                 (A) (A) (A) (A) (A) (A) (A) (A) (A) (A) (A) (A)
                 (A) (A) (A) (A) (A) (A) (A) (A) (A) (A) (A) (A)
                 (A) (A) (A) (A) (A) (A) (A) (A) (A) (A) (A) (A)
                 (A) (A) (A) (A) (A) (A)
 The electronic state is 1-A.
 Alpha  occ. eigenvalues --   -1.84851  -1.81662  -1.79049  -1.75223  -1.74116
 Alpha  occ. eigenvalues --   -1.70347  -1.66117  -1.62137  -1.59153  -1.57602
 Alpha  occ. eigenvalues --   -1.55654  -1.53045  -1.48671  -1.48284  -1.46173
 Alpha  occ. eigenvalues --   -1.45244  -1.43756  -1.40863  -1.38922  -1.38526
 Alpha  occ. eigenvalues --   -1.36432  -1.33188  -1.32006  -1.31102  -1.27161
 Alpha  occ. eigenvalues --   -1.26543  -1.25321  -1.22102  -1.20810  -1.17602
 Alpha  occ. eigenvalues --   -1.17029  -1.15147  -1.15067  -1.13740  -1.13275
 Alpha  occ. eigenvalues --   -1.12447  -1.11348  -1.10802  -1.04898  -1.03773
 Alpha  occ. eigenvalues --   -1.02861  -1.01179  -0.99773  -0.98107  -0.97678
 Alpha  occ. eigenvalues --   -0.96256  -0.94482  -0.93130  -0.92930  -0.92526
 Alpha  occ. eigenvalues --   -0.90256  -0.89888  -0.89254  -0.87466  -0.86084
 Alpha  occ. eigenvalues --   -0.85275  -0.83780  -0.82588  -0.81451  -0.80977
 Alpha  occ. eigenvalues --   -0.80813  -0.79342  -0.77685  -0.76867  -0.76793
 Alpha  occ. eigenvalues --   -0.75823  -0.75702  -0.75078  -0.74376  -0.73699
 Alpha  occ. eigenvalues --   -0.73079  -0.72400  -0.72103  -0.71798  -0.70109
 Alpha  occ. eigenvalues --   -0.69821  -0.69522  -0.69115  -0.68236  -0.67894
 Alpha  occ. eigenvalues --   -0.67242  -0.67124  -0.66365  -0.65783  -0.65658
 Alpha  occ. eigenvalues --   -0.64804  -0.64603  -0.63973  -0.63581  -0.63302
 Alpha  occ. eigenvalues --   -0.63193  -0.62720  -0.62379  -0.62067  -0.61949
 Alpha  occ. eigenvalues --   -0.61788  -0.60710  -0.60327  -0.60176  -0.59946
 Alpha  occ. eigenvalues --   -0.58921  -0.58831  -0.58634  -0.58459  -0.58162
 Alpha  occ. eigenvalues --   -0.57692  -0.57354  -0.57108  -0.56716  -0.56246
 Alpha  occ. eigenvalues --   -0.56041  -0.55829  -0.55719  -0.55053  -0.54907
 Alpha  occ. eigenvalues --   -0.54784  -0.54090  -0.53647  -0.52990  -0.52829
 Alpha  occ. eigenvalues --   -0.52609  -0.52470  -0.52300  -0.51990  -0.51390
 Alpha  occ. eigenvalues --   -0.51325  -0.51125  -0.51004  -0.50161  -0.50090
 Alpha  occ. eigenvalues --   -0.49986  -0.49759  -0.49441  -0.49296  -0.49089
 Alpha  occ. eigenvalues --   -0.48507  -0.48259  -0.48051  -0.47945  -0.47630
 Alpha  occ. eigenvalues --   -0.47582  -0.47191  -0.46857  -0.46554  -0.46155
 Alpha  occ. eigenvalues --   -0.45873  -0.45823  -0.45713  -0.45577  -0.45459
 Alpha  occ. eigenvalues --   -0.45272  -0.44665  -0.44450  -0.44050  -0.43584
 Alpha  occ. eigenvalues --   -0.43515  -0.42967  -0.42765  -0.42660  -0.42053
 Alpha  occ. eigenvalues --   -0.41795  -0.41272  -0.41046  -0.38816  -0.38386
 Alpha  occ. eigenvalues --   -0.38201  -0.36996  -0.35935  -0.34738  -0.34288
 Alpha  occ. eigenvalues --   -0.33443  -0.32802  -0.32263  -0.31947  -0.26681
 Alpha  occ. eigenvalues --   -0.22080
 Alpha virt. eigenvalues --   -0.08813  -0.02113  -0.00612   0.00883   0.01340
 Alpha virt. eigenvalues --    0.02810   0.03031   0.03527   0.04746   0.05487
 Alpha virt. eigenvalues --    0.06305   0.06460   0.07242   0.08046   0.08178
 Alpha virt. eigenvalues --    0.08545   0.08782   0.09018   0.09532   0.09891
 Alpha virt. eigenvalues --    0.10121   0.10411   0.10578   0.10775   0.10985
 Alpha virt. eigenvalues --    0.11145   0.11328   0.11641   0.11973   0.12135
 Alpha virt. eigenvalues --    0.12395   0.12824   0.13172   0.13397   0.13685
 Alpha virt. eigenvalues --    0.13729   0.14076   0.14116   0.14291   0.14855
 Alpha virt. eigenvalues --    0.14975   0.15438   0.15702   0.15727   0.15775
 Alpha virt. eigenvalues --    0.15892   0.16161   0.16736   0.16921   0.17257
 Alpha virt. eigenvalues --    0.17377   0.17459   0.17519   0.17789   0.18414
 Alpha virt. eigenvalues --    0.18578   0.18758   0.18997   0.19108   0.19318
 Alpha virt. eigenvalues --    0.19460   0.19674   0.19791   0.20570   0.20740
 Alpha virt. eigenvalues --    0.21796   0.22010   0.22864   0.23082   0.23210
 Alpha virt. eigenvalues --    0.23610   0.23647   0.24060   0.24144   0.24213
 Alpha virt. eigenvalues --    0.24683   0.24691   0.24751   0.24783   0.24909
 Alpha virt. eigenvalues --    0.24978   0.25036   0.25055   0.25098   0.25115
 Alpha virt. eigenvalues --    0.25296   0.25311   0.25538   0.25617   0.25644
 Alpha virt. eigenvalues --    0.25673   0.25700   0.25703   0.25827   0.25857
 Alpha virt. eigenvalues --    0.25919   0.26028   0.26036   0.26185   0.26255
 Alpha virt. eigenvalues --    0.26276   0.26448   0.26519   0.26651   0.26668
 Alpha virt. eigenvalues --    0.26714   0.26949   0.26967   0.27277   0.27336
 Alpha virt. eigenvalues --    0.27575   0.27656   0.27675   0.27778   0.28016
 Alpha virt. eigenvalues --    0.28084   0.28156   0.28718   0.29282   0.29283
 Alpha virt. eigenvalues --    0.29656   0.29828   0.30779   0.30934   0.31479
 Alpha virt. eigenvalues --    0.31905   0.32701   0.32877   0.33283   0.34058
 Alpha virt. eigenvalues --    0.35185   0.35333   0.35438   0.35817   0.35972
 Alpha virt. eigenvalues --    0.36338   0.36413   0.37224   0.37533   0.38003
 Alpha virt. eigenvalues --    0.39393   0.39432   0.40080   0.40356   0.40511
 Alpha virt. eigenvalues --    0.40602   0.41318   0.41855   0.42570   0.43019
 Alpha virt. eigenvalues --    0.43914   0.44228   0.45814   0.46321   0.47716
 Alpha virt. eigenvalues --    0.48098   0.48508   0.48750   0.51078   0.52978
 Alpha virt. eigenvalues --    0.54136   0.57029
          Condensed to atoms (all electrons):
 Mulliken charges:
               1
     1  Mg   0.432723
     2  C   -0.048662
     3  C   -0.089169
     4  C   -0.058005
     5  C   -0.055872
     6  N   -0.294580
     7  C    0.107395
     8  C   -0.001211
     9  C    0.013707
    10  C    0.138212
    11  C   -0.044821
    12  C   -0.022469
    13  C   -0.001979
    14  C    0.482714
    15  O   -0.518295
    16  O   -0.287184
    17  N   -0.308069
    18  C    0.124456
    19  C    0.016106
    20  C   -0.052388
    21  C    0.123836
    22  C   -0.046421
    23  C    0.335008
    24  O   -0.515041
    25  C   -0.034962
    26  N   -0.251366
    27  C    0.140588
    28  C   -0.015310
    29  C   -0.003649
    30  C    0.130147
    31  C   -0.057505
    32  C   -0.036041
    33  C   -0.056052
    34  N   -0.317956
    35  C    0.071362
    36  C    0.029675
    37  C   -0.055747
    38  C    0.134494
    39  C   -0.043583
    40  C    0.324854
    41  O   -0.528365
    42  C    0.039846
    43  C    0.501147
    44  O   -0.513106
    45  O   -0.273959
    46  C    0.076036
    47  C    0.094045
    48  C   -0.085261
    49  C   -0.004829
    50  C   -0.040806
    51  C   -0.028557
    52  C   -0.033747
    53  C   -0.042738
    54  C   -0.017535
    55  C   -0.067867
    56  C   -0.040110
    57  C   -0.042129
    58  C   -0.033339
    59  C   -0.005945
    60  C   -0.065224
    61  C   -0.028093
    62  C   -0.038229
    63  C   -0.032505
    64  C   -0.014014
    65  C   -0.055453
    66  C   -0.067508
    67  H    0.022167
    68  H    0.053067
    69  H    0.022931
    70  H    0.042122
    71  H    0.032545
    72  H    0.019089
    73  H    0.013047
    74  H    0.024421
    75  H    0.022997
    76  H    0.042134
    77  H    0.022873
    78  H    0.038148
    79  H    0.032185
    80  H    0.028253
    81  H    0.024462
    82  H    0.034290
    83  H    0.034678
    84  H    0.042385
    85  H    0.038438
    86  H    0.034576
    87  H    0.015884
    88  H    0.027193
    89  H    0.032766
    90  H    0.020982
    91  H    0.019236
    92  H    0.030254
    93  H    0.015233
    94  H    0.031404
    95  H    0.046068
    96  H    0.029762
    97  H    0.017845
    98  H    0.065257
    99  H    0.027082
   100  H    0.036533
   101  H    0.052916
   102  H    0.057486
   103  H    0.042697
   104  H    0.041010
   105  H    0.023146
   106  H    0.019585
   107  H    0.032929
   108  H    0.028163
   109  H    0.020133
   110  H    0.023029
   111  H    0.031629
   112  H    0.011126
   113  H    0.028027
   114  H    0.013609
   115  H    0.029191
   116  H    0.023250
   117  H    0.020604
   118  H    0.024582
   119  H    0.014989
   120  H    0.022818
   121  H    0.013949
   122  H    0.025346
   123  H    0.016247
   124  H    0.020375
   125  H    0.014361
   126  H    0.012487
   127  H    0.022690
   128  H    0.020367
   129  H    0.020604
   130  H    0.003349
   131  H    0.021291
   132  H    0.004442
   133  H    0.022648
   134  H    0.030570
   135  H    0.023194
   136  H    0.009971
   137  H    0.019633
   138  H    0.027730
   139  H    0.006822
   140  H    0.022002
 Sum of Mulliken charges =  -0.00000
 Mulliken charges with hydrogens summed into heavy atoms:
               1
     1  Mg   0.432723
     2  C   -0.048662
     3  C   -0.067001
     4  C   -0.004939
     5  C   -0.032941
     6  N   -0.294580
     7  C    0.107395
     8  C    0.040910
     9  C    0.046252
    10  C    0.138212
    11  C    0.011736
    12  C    0.042663
    13  C    0.059042
    14  C    0.482714
    15  O   -0.518295
    16  O   -0.287184
    17  N   -0.308069
    18  C    0.124456
    19  C    0.016106
    20  C   -0.052388
    21  C    0.123836
    22  C    0.038479
    23  C    0.335008
    24  O   -0.515041
    25  C    0.076391
    26  N   -0.251366
    27  C    0.140588
    28  C    0.023128
    29  C    0.030927
    30  C    0.130147
    31  C    0.018337
    32  C    0.004178
    33  C    0.020839
    34  N   -0.317956
    35  C    0.071362
    36  C    0.029675
    37  C   -0.055747
    38  C    0.134494
    39  C    0.050093
    40  C    0.324854
    41  O   -0.528365
    42  C    0.105103
    43  C    0.501147
    44  O   -0.513106
    45  O   -0.273959
    46  C    0.192567
    47  C    0.194228
    48  C   -0.044252
    49  C   -0.004829
    50  C    0.034855
    51  C    0.019739
    52  C    0.020911
    53  C   -0.003584
    54  C   -0.003926
    55  C    0.005178
    56  C   -0.000539
    57  C   -0.005363
    58  C    0.008255
    59  C    0.014430
    60  C   -0.015686
    61  C    0.012878
    62  C   -0.013590
    63  C   -0.005416
    64  C    0.016556
    65  C   -0.002654
    66  C   -0.010953
 Charge=             -0.0000 electrons
 Dipole moment (field-independent basis, Debye):
    X=             -3.8953    Y=              6.5382    Z=             -0.6592  Tot=              7.6391
 N-N= 4.192639125331D+03 E-N= 0.000000000000D+00  KE=-9.059866864214D+03
 Leave Link  601 at Thu May  5 13:40:57 2022, MaxMem=  6710886400 cpu:               0.7 elap:               0.0
 (Enter /sw/apps/gaussian-16.0/g16/l9999.exe)
 1\1\GINC-BP1-COMPUTE141\SP\RZINDO CIS\STO-3G\C55H74Mg1N4O6\OF15641\05-
 May-2022\0\\#p ZINDO=(nstates=5)\\step_851_chromophore_16 ZINDO\\0,1\M
 g,0,40.821,41.578,27.534\C,0,40.026,43.766,30.188\C,0,41.778,39.216,29
 .867\C,0,42.182,39.759,25.037\C,0,40.589,44.31,25.334\N,0,41.099,41.60
 8,29.77\C,0,40.502,42.503,30.64\C,0,40.72,42.03,32.127\C,0,41.201,40.5
 2,31.964\C,0,41.461,40.448,30.438\C,0,42.354,40.1,32.799\C,0,39.395,42
 .255,32.935\C,0,39.244,41.429,34.238\C,0,38.636,42.092,35.426\O,0,37.4
 75,42.318,35.611\O,0,39.624,42.437,36.287\N,0,41.729,39.673,27.456\C,0
 ,41.864,38.814,28.481\C,0,42.277,37.524,27.951\C,0,42.464,37.647,26.53
 2\C,0,42.197,39.128,26.294\C,0,42.356,36.29,28.849\C,0,42.819,36.612,2
 5.505\O,0,43.086,36.852,24.344\C,0,42.769,35.137,25.955\N,0,41.28,42.0
 48,25.506\C,0,41.831,41.084,24.745\C,0,41.798,41.421,23.257\C,0,41.323
 ,42.931,23.316\C,0,40.988,43.127,24.785\C,0,43.222,41.09,22.525\C,0,40
 .034,43.194,22.447\C,0,38.647,42.978,23.14\N,0,40.303,43.628,27.677\C,
 0,40.308,44.625,26.705\C,0,39.84,45.834,27.309\C,0,39.605,45.512,28.64
 9\C,0,39.994,44.177,28.825\C,0,39.5,47.212,26.685\C,0,39.222,46.081,29
 .91\O,0,38.73,47.167,30.18\C,0,39.493,44.967,31.074\C,0,40.519,45.534,
 31.965\O,0,41.655,45.784,31.704\O,0,39.923,45.722,33.189\C,0,40.595,46
 .648,34.044\C,0,39.2,43.057,37.578\C,0,38.71,41.948,38.458\C,0,38.05,4
 2.16,39.593\C,0,37.788,43.476,40.256\C,0,37.571,40.954,40.382\C,0,38.4
 95,40.521,41.515\C,0,38.719,38.907,41.451\C,0,38.754,38.3,42.85\C,0,40
 .166,37.753,43.202\C,0,37.721,37.24,43.072\C,0,36.991,37.211,44.457\C,
 0,36.493,35.767,44.811\C,0,35.158,35.709,45.559\C,0,35.246,36.58,46.84
 4\C,0,34.778,34.285,45.852\C,0,33.497,33.871,45.017\C,0,32.126,33.972,
 45.693\C,0,31.31,35.244,45.338\C,0,30.344,34.922,44.191\C,0,30.356,35.
 736,46.499\H,0,41.887,38.421,30.608\H,0,42.496,39.14,24.194\H,0,40.398
 ,45.184,24.708\H,0,41.455,42.661,32.627\H,0,40.349,39.889,32.215\H,0,4
 3.07,39.536,32.202\H,0,42.04,39.459,33.623\H,0,42.951,40.872,33.286\H,
 0,38.647,41.882,32.235\H,0,39.239,43.305,33.182\H,0,40.243,41.072,34.4
 91\H,0,38.698,40.486,34.198\H,0,42.224,36.352,29.929\H,0,43.269,35.742
 ,28.619\H,0,41.527,35.652,28.542\H,0,43.594,35.076,26.665\H,0,43.092,3
 4.456,25.168\H,0,41.804,34.845,26.37\H,0,41.034,40.836,22.744\H,0,42.1
 41,43.561,22.965\H,0,43.484,42.007,21.997\H,0,43.074,40.266,21.827\H,0
 ,44.073,40.852,23.162\H,0,40.18,42.501,21.618\H,0,40.141,44.234,22.138
 \H,0,38.863,42.351,24.006\H,0,37.984,42.379,22.515\H,0,38.189,43.947,2
 3.338\H,0,40.092,48.058,27.035\H,0,38.461,47.338,26.989\H,0,39.425,47.
 173,25.598\H,0,38.499,44.91,31.518\H,0,40.93,46.118,34.936\H,0,39.815,
 47.369,34.288\H,0,41.497,47.135,33.673\H,0,38.328,43.691,37.416\H,0,40
 .06,43.612,37.955\H,0,38.79,41.011,37.907\H,0,36.726,43.467,40.501\H,0
 ,37.938,44.305,39.564\H,0,38.289,43.679,41.203\H,0,37.407,40.203,39.61
 \H,0,36.643,41.313,40.826\H,0,37.971,40.671,42.459\H,0,39.442,41.058,4
 1.471\H,0,39.687,38.795,40.962\H,0,38.029,38.329,40.837\H,0,38.548,39.
 088,43.574\H,0,40.1,37.091,44.065\H,0,40.652,38.724,43.286\H,0,40.53,3
 7.24,42.311\H,0,38.223,36.288,42.896\H,0,36.907,37.509,42.399\H,0,36.2
 18,37.98,44.454\H,0,37.692,37.565,45.213\H,0,37.165,35.245,45.491\H,0,
 36.299,35.208,43.895\H,0,34.436,36.192,44.901\H,0,34.93,37.607,46.663\
 H,0,36.279,36.802,47.112\H,0,34.763,36.155,47.724\H,0,34.507,34.151,46
 .9\H,0,35.564,33.567,45.618\H,0,33.59,32.804,44.814\H,0,33.506,34.349,
 44.038\H,0,32.325,34.003,46.764\H,0,31.502,33.078,45.659\H,0,32.041,36
 .037,45.179\H,0,30.364,33.888,43.846\H,0,30.637,35.618,43.404\H,0,29.3
 06,35.182,44.394\H,0,29.316,35.945,46.249\H,0,30.726,36.721,46.784\H,0
 ,30.484,35.054,47.34\\Version=ES64L-G16RevA.03\State=1-A\HF=-474.38400
 93\RMSD=8.388e-09\PG=C01 [X(C55H74Mg1N4O6)]\\@


 NATURE REVEALS EVERY SECRET ONCE.
                    - RALPH WALDO EMERSON
 Job cpu time:       0 days  0 hours  2 minutes 43.7 seconds.
 Elapsed time:       0 days  0 hours  0 minutes  7.1 seconds.
 File lengths (MBytes):  RWF=   1275 Int=      0 D2E=      0 Chk=     38 Scr=      1
 Normal termination of Gaussian 16 at Thu May  5 13:40:57 2022.
